
    -----------------------------------------------------------------------
          Psi4: An Open-Source Ab Initio Electronic Structure Package
                               Psi4 1.3.2 release

                         Git: Rev {HEAD} ecbda83 


    R. M. Parrish, L. A. Burns, D. G. A. Smith, A. C. Simmonett,
    A. E. DePrince III, E. G. Hohenstein, U. Bozkaya, A. Yu. Sokolov,
    R. Di Remigio, R. M. Richard, J. F. Gonthier, A. M. James,
    H. R. McAlexander, A. Kumar, M. Saitow, X. Wang, B. P. Pritchard,
    P. Verma, H. F. Schaefer III, K. Patkowski, R. A. King, E. F. Valeev,
    F. A. Evangelista, J. M. Turney, T. D. Crawford, and C. D. Sherrill,
    J. Chem. Theory Comput. 13(7) pp 3185--3197 (2017).
    (doi: 10.1021/acs.jctc.7b00174)


                         Additional Contributions by
    P. Kraus, H. Kruse, M. H. Lechner, M. C. Schieber, R. A. Shaw,
    A. Alenaizan, R. Galvelis, Z. L. Glick, S. Lehtola, and J. P. Misiewicz

    -----------------------------------------------------------------------


    Psi4 started on: Thursday, 05 March 2020 02:01PM

    Process ID: 18110
    Host:       trurls-machine
    PSIDATADIR: /Users/teague/anaconda3/envs/gen_env/share/psi4
    Memory:     500.0 MiB
    Threads:    1
    
  ==> Input File <==

--------------------------------------------------------------------------
"""This is a template for psi4 input format."""
import numpy
import sys

from openfermion.config import *
from openfermion.hamiltonians import MolecularData
from openfermion.ops import general_basis_change

from numpy import array

sys.path.append('/Users/teague/.local/lib/python3.7/site-packages/openfermionpsi4')
from _psi4_conversion_functions import *


# Set memory that job can use in megabytes.
memory 8000 mb

# Initialize molecular data.
_description = 'NIST'
if _description == 'None':
    _description = None
molecule = MolecularData([('C', (0.7551, 1.5185, 1.3863)), ('C', (2.1672, 1.0356, 1.043)), ('C', (3.2747, 1.8811, 1.6808)), ('O', (0.4521, 1.4365, 2.7758)), ('H', (0.609, 2.5463, 1.0119)), ('H', (0.0129, 0.8845, 0.8901)), ('H', (2.2785, 1.0441, -0.0503)), ('H', (2.266, -0.0086, 1.3658)), ('H', (3.223, 1.8453, 2.776)), ('H', (3.2041, 2.9322, 1.3719)), ('H', (4.2676, 1.5178, 1.395)), ('H', (0.9983, 2.0925, 3.2342))],
                         'sto-3g',
                         1,
                         0,
                         _description,
                          filename='molecule_data/1-propanol_sto-3g_singlet_NIST')

# Set molecular geometry and symmetry.
molecule mol {
C 0.7551 1.5185 1.3863
C 2.1672 1.0356 1.043
C 3.2747 1.8811 1.6808
O 0.4521 1.4365 2.7758
H 0.609 2.5463 1.0119
H 0.0129 0.8845 0.8901
H 2.2785 1.0441 -0.0503
H 2.266 -0.0086 1.3658
H 3.223 1.8453 2.776
H 3.2041 2.9322 1.3719
H 4.2676 1.5178 1.395
H 0.9983 2.0925 3.2342
symmetry c1
}
mol.set_multiplicity(1)
mol.set_molecular_charge(0)

# Set reference and guess.
if molecule.multiplicity == 1:
    set reference rhf
    set guess sad
else:
    set reference rohf
    set guess gwh

# Set global parameters of calculation.
set globals {
    basis sto-3g
    freeze_core false
    fail_on_maxiter True
    df_scf_guess false
    opdm true
    tpdm true
    soscf false
    scf_type pk
    maxiter 1e6
    num_amps_print 1e6
    r_convergence 1e-6
    d_convergence 1e-6
    e_convergence 1e-6
    ints_tolerance EQUALITY_TOLERANCE
    damping_percentage 0
}

# Run self-consistent field (SCF) calculation.
if True:
    try:
        hf_energy, hf_wavefunction = energy('scf', return_wfn=True)
        if False:
            print('Hartree-Fock energy for {} ({} electrons) is {}.'.format(
                molecule.name, molecule.n_electrons, hf_energy))
    except:
        if False:
            print('WARNING: SCF calculation failed.')
        else:
            raise
    finally:
        # Get orbitals and Fock matrix.
        molecule.hf_energy = hf_energy
        molecule.nuclear_repulsion = mol.nuclear_repulsion_energy()
        molecule.canonical_orbitals = numpy.asarray(hf_wavefunction.Ca())
        molecule.overlap_integrals = numpy.asarray(hf_wavefunction.S())
        molecule.n_orbitals = molecule.canonical_orbitals.shape[0]
        molecule.n_qubits = 2 * molecule.n_orbitals
        molecule.orbital_energies = numpy.asarray(hf_wavefunction.epsilon_a())
        molecule.fock_matrix = numpy.asarray(hf_wavefunction.Fa())

        # Get integrals using MintsHelper.
        mints = MintsHelper(hf_wavefunction.basisset())
        molecule.one_body_integrals = general_basis_change(
            numpy.asarray(mints.ao_kinetic()), molecule.canonical_orbitals, (1, 0))
        molecule.one_body_integrals += general_basis_change(
            numpy.asarray(mints.ao_potential()), molecule.canonical_orbitals, (1, 0))
        two_body_integrals = numpy.asarray(mints.ao_eri())
        two_body_integrals.reshape((molecule.n_orbitals, molecule.n_orbitals,
                                    molecule.n_orbitals, molecule.n_orbitals))
        two_body_integrals = numpy.einsum('psqr', two_body_integrals)
        two_body_integrals = general_basis_change(
            two_body_integrals, molecule.canonical_orbitals, (1, 1, 0, 0))
        molecule.two_body_integrals = two_body_integrals
        molecule.save()


# Perform MP2 energy calculation if there are at least two electrons.
if True:
    try:
        assert molecule.n_electrons > 1
        mp2_energy = energy('mp2')
        if False:
            print('MP2 energy for {} ({} electrons) is {}.'.format(
                molecule.name, molecule.n_electrons, mp2_energy))
    except:
        if False:
            print('WARNING: MP2 calculation failed.')
        else:
            raise
    else:
        molecule.mp2_energy = mp2_energy
        molecule.save()


# Perform configuration interaction singles and doubles (CISD) calculation.
if True:
    set qc_module detci
    try:
        cisd_energy, cisd_wavefunction = energy('cisd', return_wfn=True)
        if False:
            print('CISD energy for {} ({} electrons) is {}.'.format(
                molecule.name, molecule.n_electrons, cisd_energy))
    except:
        if False:
            print('WARNING: CISD calculation failed.')
        else:
            raise
    else:
        # For the functions below, "a" and "b" refer to "up and "down" spins.
        molecule.cisd_energy = cisd_energy

        # Get 1-RDM from CISD calculation.
        cisd_one_rdm_a = numpy.array(cisd_wavefunction.get_opdm(
            0, 0, 'A', True)).reshape(molecule.n_orbitals, molecule.n_orbitals)
        cisd_one_rdm_b = numpy.array(cisd_wavefunction.get_opdm(
            0, 0, 'B', True)).reshape(molecule.n_orbitals, molecule.n_orbitals)

        # Get 2-RDM from CISD calculation.
        cisd_two_rdm_aa = numpy.array(cisd_wavefunction.get_tpdm(
            'AA', False)).reshape(molecule.n_orbitals, molecule.n_orbitals,
                                  molecule.n_orbitals, molecule.n_orbitals)
        cisd_two_rdm_ab = numpy.array(cisd_wavefunction.get_tpdm(
            'AB', False)).reshape(molecule.n_orbitals, molecule.n_orbitals,
                                  molecule.n_orbitals, molecule.n_orbitals)
        cisd_two_rdm_bb = numpy.array(cisd_wavefunction.get_tpdm(
            'BB', False)).reshape(molecule.n_orbitals, molecule.n_orbitals,
                                  molecule.n_orbitals, molecule.n_orbitals)

        # Get overall RDMs.
        cisd_one_rdm, cisd_two_rdm = unpack_spatial_rdm(
            cisd_one_rdm_a, cisd_one_rdm_b, cisd_two_rdm_aa,
            cisd_two_rdm_ab, cisd_two_rdm_bb)

        # Store 1-RDM in molecule file, 2-RDM separately in other file.
        molecule.cisd_one_rdm = cisd_one_rdm
        molecule.cisd_two_rdm = cisd_two_rdm
        molecule.save()


# Perform exact diagonalization.
if True:
    set qc_module detci
    try:
        fci_energy, fci_wavefunction = energy('fci', return_wfn=True)
        if False:
            print('FCI energy for {} ({} electrons) is {}.'.format(
                molecule.name, molecule.n_electrons, fci_energy))
    except:
        if False:
            print('WARNING: FCI calculation failed.')
        else:
            raise
    finally:
        # For the functions below, "a" and "b" refer to "up and "down" spins.
        molecule.fci_energy = fci_energy

        # Get 1-RDM from FCI calculation.
        fci_one_rdm_a = numpy.array(fci_wavefunction.get_opdm(
            0, 0, 'A', True)).reshape(molecule.n_orbitals, molecule.n_orbitals)
        fci_one_rdm_b = numpy.array(fci_wavefunction.get_opdm(
            0, 0, 'B', True)).reshape(molecule.n_orbitals, molecule.n_orbitals)

        # Get 2-RDM from FCI calculation.
        fci_two_rdm_aa = numpy.array(fci_wavefunction.get_tpdm(
            'AA', False)).reshape(molecule.n_orbitals, molecule.n_orbitals,
                                  molecule.n_orbitals, molecule.n_orbitals)
        fci_two_rdm_ab = numpy.array(fci_wavefunction.get_tpdm(
            'AB', False)).reshape(molecule.n_orbitals, molecule.n_orbitals,
                                  molecule.n_orbitals, molecule.n_orbitals)
        fci_two_rdm_bb = numpy.array(fci_wavefunction.get_tpdm(
            'BB', False)).reshape(molecule.n_orbitals, molecule.n_orbitals,
                                  molecule.n_orbitals, molecule.n_orbitals)

        # Get overall RDMs.
        fci_one_rdm, fci_two_rdm = unpack_spatial_rdm(
            fci_one_rdm_a, fci_one_rdm_b,
            fci_two_rdm_aa, fci_two_rdm_ab, fci_two_rdm_bb)

        # Store 1-RDM in molecule file, 2-RDM separately in other file.
        molecule.fci_one_rdm = fci_one_rdm
        molecule.fci_two_rdm = fci_two_rdm
        molecule.save()


# Perform coupled cluster singles and doubles (CCSD) calculation.
if True:
    set qc_module ccenergy
    try:
        ccsd_energy = energy('ccsd')
        if False:
            print('CCSD energy for {} ({} electrons) is {}.'.format(
                molecule.name, molecule.n_electrons, ccsd_energy))
    except:
        if False:
            print('WARNING: CCSD calculation failed.')
        else:
            raise
    else:
        molecule.ccsd_energy = ccsd_energy

        # Merge CC amplitudes into molecule by parsing
        psi_filename = outfile_name()
        single_cc_amplitudes, double_cc_amplitudes = (
            parse_psi4_ccsd_amplitudes(
                2 * molecule.n_orbitals,
                molecule.get_n_alpha_electrons(),
                molecule.get_n_beta_electrons(),
                psi_filename))

        molecule.ccsd_single_amps = single_cc_amplitudes
        molecule.ccsd_double_amps = double_cc_amplitudes
        molecule.save()
--------------------------------------------------------------------------

  Memory set to   7.451 GiB by Python driver.

*** tstart() called on trurls-machine
*** at Thu Mar  5 14:01:38 2020

   => Loading Basis Set <=

    Name: STO-3G
    Role: ORBITAL
    Keyword: BASIS
    atoms 1-3  entry C          line    61 file /Users/teague/anaconda3/envs/gen_env/share/psi4/basis/sto-3g.gbs 
    atoms 4    entry O          line    81 file /Users/teague/anaconda3/envs/gen_env/share/psi4/basis/sto-3g.gbs 
    atoms 5-12 entry H          line    19 file /Users/teague/anaconda3/envs/gen_env/share/psi4/basis/sto-3g.gbs 


         ---------------------------------------------------------
                                   SCF
               by Justin Turney, Rob Parrish, Andy Simmonett
                          and Daniel G. A. Smith
                              RHF Reference
                        1 Threads,   7629 MiB Core
         ---------------------------------------------------------

  ==> Geometry <==

    Molecular point group: c1
    Full point group: C1

    Geometry (in Angstrom), charge = 0, multiplicity = 1:

       Center              X                  Y                   Z               Mass       
    ------------   -----------------  -----------------  -----------------  -----------------
         C           -0.886436890914     0.034026678389    -0.375483556122    12.000000000000
         C            0.525663109086    -0.448873321611    -0.718783556122    12.000000000000
         C            1.633163109086     0.396626678389    -0.080983556122    12.000000000000
         O           -1.189436890914    -0.047973321611     1.014016443878    15.994914619570
         H           -1.032536890914     1.061826678389    -0.749883556122     1.007825032230
         H           -1.628636890914    -0.599973321611    -0.871683556122     1.007825032230
         H            0.636963109086    -0.440373321611    -1.812083556122     1.007825032230
         H            0.624463109086    -1.493073321611    -0.395983556122     1.007825032230
         H            1.581463109086     0.360826678389     1.014216443878     1.007825032230
         H            1.562563109086     1.447726678389    -0.389883556122     1.007825032230
         H            2.626063109086     0.033326678389    -0.366783556122     1.007825032230
         H           -0.643236890914     0.608026678389     1.472416443878     1.007825032230

  Running in c1 symmetry.

  Rotational constants: A =      0.47434  B =      0.16761  C =      0.14080 [cm^-1]
  Rotational constants: A =  14220.37418  B =   5024.82819  C =   4221.13318 [MHz]
  Nuclear repulsion =  132.034161805363340

  Charge       = 0
  Multiplicity = 1
  Electrons    = 34
  Nalpha       = 17
  Nbeta        = 17

  ==> Algorithm <==

  SCF Algorithm Type is PK.
  DIIS enabled.
  MOM disabled.
  Fractional occupation disabled.
  Guess Type is SAD.
  Energy threshold   = 1.00e-06
  Density threshold  = 1.00e-06
  Integral threshold = 0.00e+00

  ==> Primary Basis <==

  Basis Set: STO-3G
    Blend: STO-3G
    Number of shells: 20
    Number of basis function: 28
    Number of Cartesian functions: 28
    Spherical Harmonics?: true
    Max angular momentum: 1

  ==> Pre-Iterations <==

   -------------------------------------------------------
    Irrep   Nso     Nmo     Nalpha   Nbeta   Ndocc  Nsocc
   -------------------------------------------------------
     A         28      28       0       0       0       0
   -------------------------------------------------------
    Total      28      28      17      17      17       0
   -------------------------------------------------------

  ==> Integral Setup <==

  Using in-core PK algorithm.
   Calculation information:
      Number of atoms:                  12
      Number of AO shells:              20
      Number of primitives:             60
      Number of atomic orbitals:        28
      Number of basis functions:        28

      Integral cutoff                 1.00e-12
      Number of threads:                 1

  Performing in-core PK
  Using 165242 doubles for integral storage.
  We computed 21513 shell quartets total.
  Whereas there are 22155 unique shell quartets.

  ==> DiskJK: Disk-Based J/K Matrices <==

    J tasked:                  Yes
    K tasked:                  Yes
    wK tasked:                  No
    Memory [MiB]:             5722
    Schwarz Cutoff:          1E-12

    OpenMP threads:              1

  Minimum eigenvalue in the overlap matrix is 2.0648504071E-01.
  Using Symmetric Orthogonalization.

  SCF Guess: Superposition of Atomic Densities via on-the-fly atomic UHF.

  ==> Iterations <==

                        Total Energy        Delta E     RMS |[F,P]|

   @RHF iter SAD:  -187.17852283760885   -1.87179e+02   0.00000e+00 
   @RHF iter   1:  -190.65099940164137   -3.47248e+00   1.00974e-02 DIIS
   @RHF iter   2:  -190.70682758599602   -5.58282e-02   2.53537e-03 DIIS
   @RHF iter   3:  -190.71000983805587   -3.18225e-03   5.14737e-04 DIIS
   @RHF iter   4:  -190.71022051404012   -2.10676e-04   6.06041e-05 DIIS
   @RHF iter   5:  -190.71022375433364   -3.24029e-06   1.73901e-05 DIIS
   @RHF iter   6:  -190.71022410579062   -3.51457e-07   3.24512e-06 DIIS
   @RHF iter   7:  -190.71022411710700   -1.13164e-08   7.75898e-07 DIIS
  Energy and wave function converged.


  ==> Post-Iterations <==

    Orbital Energies [Eh]
    ---------------------

    Doubly Occupied:                                                      

       1A    -20.248098     2A    -11.087558     3A    -11.048251  
       4A    -11.043507     5A     -1.280744     6A     -1.008671  
       7A     -0.882502     8A     -0.764779     9A     -0.628510  
      10A     -0.592419    11A     -0.550147    12A     -0.538741  
      13A     -0.484953    14A     -0.459948    15A     -0.450675  
      16A     -0.397419    17A     -0.345680  

    Virtual:                                                              

      18A      0.565423    19A      0.606062    20A      0.622769  
      21A      0.640662    22A      0.706988    23A      0.721905  
      24A      0.727830    25A      0.758889    26A      0.773919  
      27A      0.780589    28A      0.806883  

    Final Occupation by Irrep:
              A 
    DOCC [    17 ]

  @RHF Final Energy:  -190.71022411710700

   => Energetics <=

    Nuclear Repulsion Energy =            132.0341618053633397
    One-Electron Energy =                -521.8635763604382873
    Two-Electron Energy =                 199.1191904379679443
    Total Energy =                       -190.7102241171070034

Computation Completed


Properties will be evaluated at   0.000000,   0.000000,   0.000000 [a0]

Properties computed using the SCF density matrix

  Nuclear Dipole Moment: [e a0]
     X:     3.4883      Y:     0.9169      Z:    -1.9635

  Electronic Dipole Moment: [e a0]
     X:    -3.0633      Y:    -0.5754      Z:     1.7199

  Dipole Moment: [e a0]
     X:     0.4250      Y:     0.3415      Z:    -0.2436     Total:     0.5972

  Dipole Moment: [D]
     X:     1.0803      Y:     0.8681      Z:    -0.6192     Total:     1.5179


*** tstop() called on trurls-machine at Thu Mar  5 14:01:39 2020
Module time:
	user time   =       0.46 seconds =       0.01 minutes
	system time =       0.02 seconds =       0.00 minutes
	total time  =          1 seconds =       0.02 minutes
Total time:
	user time   =       0.46 seconds =       0.01 minutes
	system time =       0.02 seconds =       0.00 minutes
	total time  =          1 seconds =       0.02 minutes

*** tstart() called on trurls-machine
*** at Thu Mar  5 14:01:39 2020

   => Loading Basis Set <=

    Name: STO-3G
    Role: ORBITAL
    Keyword: BASIS
    atoms 1-3  entry C          line    61 file /Users/teague/anaconda3/envs/gen_env/share/psi4/basis/sto-3g.gbs 
    atoms 4    entry O          line    81 file /Users/teague/anaconda3/envs/gen_env/share/psi4/basis/sto-3g.gbs 
    atoms 5-12 entry H          line    19 file /Users/teague/anaconda3/envs/gen_env/share/psi4/basis/sto-3g.gbs 


         ---------------------------------------------------------
                                   SCF
               by Justin Turney, Rob Parrish, Andy Simmonett
                          and Daniel G. A. Smith
                              RHF Reference
                        1 Threads,   7629 MiB Core
         ---------------------------------------------------------

  ==> Geometry <==

    Molecular point group: c1
    Full point group: C1

    Geometry (in Angstrom), charge = 0, multiplicity = 1:

       Center              X                  Y                   Z               Mass       
    ------------   -----------------  -----------------  -----------------  -----------------
         C           -0.886436890914     0.034026678389    -0.375483556122    12.000000000000
         C            0.525663109086    -0.448873321611    -0.718783556122    12.000000000000
         C            1.633163109086     0.396626678389    -0.080983556122    12.000000000000
         O           -1.189436890914    -0.047973321611     1.014016443878    15.994914619570
         H           -1.032536890914     1.061826678389    -0.749883556122     1.007825032230
         H           -1.628636890914    -0.599973321611    -0.871683556122     1.007825032230
         H            0.636963109086    -0.440373321611    -1.812083556122     1.007825032230
         H            0.624463109086    -1.493073321611    -0.395983556122     1.007825032230
         H            1.581463109086     0.360826678389     1.014216443878     1.007825032230
         H            1.562563109086     1.447726678389    -0.389883556122     1.007825032230
         H            2.626063109086     0.033326678389    -0.366783556122     1.007825032230
         H           -0.643236890914     0.608026678389     1.472416443878     1.007825032230

  Running in c1 symmetry.

  Rotational constants: A =      0.47434  B =      0.16761  C =      0.14080 [cm^-1]
  Rotational constants: A =  14220.37418  B =   5024.82819  C =   4221.13318 [MHz]
  Nuclear repulsion =  132.034161805363368

  Charge       = 0
  Multiplicity = 1
  Electrons    = 34
  Nalpha       = 17
  Nbeta        = 17

  ==> Algorithm <==

  SCF Algorithm Type is PK.
  DIIS enabled.
  MOM disabled.
  Fractional occupation disabled.
  Guess Type is SAD.
  Energy threshold   = 1.00e-06
  Density threshold  = 1.00e-06
  Integral threshold = 0.00e+00

  ==> Primary Basis <==

  Basis Set: STO-3G
    Blend: STO-3G
    Number of shells: 20
    Number of basis function: 28
    Number of Cartesian functions: 28
    Spherical Harmonics?: true
    Max angular momentum: 1

  ==> Pre-Iterations <==

   -------------------------------------------------------
    Irrep   Nso     Nmo     Nalpha   Nbeta   Ndocc  Nsocc
   -------------------------------------------------------
     A         28      28       0       0       0       0
   -------------------------------------------------------
    Total      28      28      17      17      17       0
   -------------------------------------------------------

  ==> Integral Setup <==

  Using in-core PK algorithm.
   Calculation information:
      Number of atoms:                  12
      Number of AO shells:              20
      Number of primitives:             60
      Number of atomic orbitals:        28
      Number of basis functions:        28

      Integral cutoff                 1.00e-12
      Number of threads:                 1

  Performing in-core PK
  Using 165242 doubles for integral storage.
  We computed 21513 shell quartets total.
  Whereas there are 22155 unique shell quartets.

  ==> DiskJK: Disk-Based J/K Matrices <==

    J tasked:                  Yes
    K tasked:                  Yes
    wK tasked:                  No
    Memory [MiB]:             5722
    Schwarz Cutoff:          1E-12

    OpenMP threads:              1

  Minimum eigenvalue in the overlap matrix is 2.0648504071E-01.
  Using Symmetric Orthogonalization.

  SCF Guess: Superposition of Atomic Densities via on-the-fly atomic UHF.

  ==> Iterations <==

                        Total Energy        Delta E     RMS |[F,P]|

   @RHF iter SAD:  -187.17852283760880   -1.87179e+02   0.00000e+00 
   @RHF iter   1:  -190.65099940164160   -3.47248e+00   1.00974e-02 DIIS
   @RHF iter   2:  -190.70682758599605   -5.58282e-02   2.53537e-03 DIIS
   @RHF iter   3:  -190.71000983805598   -3.18225e-03   5.14737e-04 DIIS
   @RHF iter   4:  -190.71022051404000   -2.10676e-04   6.06041e-05 DIIS
   @RHF iter   5:  -190.71022375433398   -3.24029e-06   1.73901e-05 DIIS
   @RHF iter   6:  -190.71022410579056   -3.51457e-07   3.24512e-06 DIIS
   @RHF iter   7:  -190.71022411710729   -1.13167e-08   7.75898e-07 DIIS
  Energy and wave function converged.


  ==> Post-Iterations <==

    Orbital Energies [Eh]
    ---------------------

    Doubly Occupied:                                                      

       1A    -20.248098     2A    -11.087558     3A    -11.048251  
       4A    -11.043507     5A     -1.280744     6A     -1.008671  
       7A     -0.882502     8A     -0.764779     9A     -0.628510  
      10A     -0.592419    11A     -0.550147    12A     -0.538741  
      13A     -0.484953    14A     -0.459948    15A     -0.450675  
      16A     -0.397419    17A     -0.345680  

    Virtual:                                                              

      18A      0.565423    19A      0.606062    20A      0.622769  
      21A      0.640662    22A      0.706988    23A      0.721905  
      24A      0.727830    25A      0.758889    26A      0.773919  
      27A      0.780589    28A      0.806883  

    Final Occupation by Irrep:
              A 
    DOCC [    17 ]

  @RHF Final Energy:  -190.71022411710729

   => Energetics <=

    Nuclear Repulsion Energy =            132.0341618053633681
    One-Electron Energy =                -521.8635763604390831
    Two-Electron Energy =                 199.1191904379683990
    Total Energy =                       -190.7102241171072876

Computation Completed


Properties will be evaluated at   0.000000,   0.000000,   0.000000 [a0]

Properties computed using the SCF density matrix

  Nuclear Dipole Moment: [e a0]
     X:     3.4883      Y:     0.9169      Z:    -1.9635

  Electronic Dipole Moment: [e a0]
     X:    -3.0633      Y:    -0.5754      Z:     1.7199

  Dipole Moment: [e a0]
     X:     0.4250      Y:     0.3415      Z:    -0.2436     Total:     0.5972

  Dipole Moment: [D]
     X:     1.0803      Y:     0.8681      Z:    -0.6192     Total:     1.5179


*** tstop() called on trurls-machine at Thu Mar  5 14:01:40 2020
Module time:
	user time   =       0.46 seconds =       0.01 minutes
	system time =       0.01 seconds =       0.00 minutes
	total time  =          1 seconds =       0.02 minutes
Total time:
	user time   =       1.60 seconds =       0.03 minutes
	system time =       0.04 seconds =       0.00 minutes
	total time  =          2 seconds =       0.03 minutes

*** tstart() called on trurls-machine
*** at Thu Mar  5 14:01:40 2020


  //>>>>>>>>>>>>>>>>>>>>>>>>>>>>>>>>>>>//
  //               DFMP2               //
  //<<<<<<<<<<<<<<<<<<<<<<<<<<<<<<<<<<<//

   => Loading Basis Set <=

    Name: (STO-3G AUX)
    Role: RIFIT
    Keyword: DF_BASIS_MP2
    atoms 1-3  entry C          line   270 file /Users/teague/anaconda3/envs/gen_env/share/psi4/basis/def2-qzvpp-ri.gbs 
    atoms 4    entry O          line   406 file /Users/teague/anaconda3/envs/gen_env/share/psi4/basis/def2-qzvpp-ri.gbs 
    atoms 5-12 entry H          line    24 file /Users/teague/anaconda3/envs/gen_env/share/psi4/basis/def2-qzvpp-ri.gbs 

	 --------------------------------------------------------
	                          DF-MP2                         
	      2nd-Order Density-Fitted Moller-Plesset Theory     
	              RMP2 Wavefunction,   1 Threads             
	                                                         
	        Rob Parrish, Justin Turney, Andy Simmonett,      
	           Ed Hohenstein, and C. David Sherrill          
	 --------------------------------------------------------

   => Auxiliary Basis Set <=

  Basis Set: (STO-3G AUX)
    Blend: DEF2-QZVPP-RI
    Number of shells: 260
    Number of basis function: 1012
    Number of Cartesian functions: 1332
    Spherical Harmonics?: true
    Max angular momentum: 5

	 --------------------------------------------------------
	                 NBF =    28, NAUX =  1012
	 --------------------------------------------------------
	   CLASS    FOCC     OCC    AOCC    AVIR     VIR    FVIR
	   PAIRS       0      17      17      11      11       0
	 --------------------------------------------------------

	-----------------------------------------------------------
	 ==================> DF-MP2 Energies <==================== 
	-----------------------------------------------------------
	 Reference Energy          =    -190.7102241171072876 [Eh]
	 Singles Energy            =      -0.0000000000000000 [Eh]
	 Same-Spin Energy          =      -0.0198639421965552 [Eh]
	 Opposite-Spin Energy      =      -0.1720502342281477 [Eh]
	 Correlation Energy        =      -0.1919141764247030 [Eh]
	 Total Energy              =    -190.9021382935319764 [Eh]
	-----------------------------------------------------------
	 ================> DF-SCS-MP2 Energies <================== 
	-----------------------------------------------------------
	 SCS Same-Spin Scale       =       0.3333333333333333 [-]
	 SCS Opposite-Spin Scale   =       1.2000000000000000 [-]
	 SCS Same-Spin Energy      =      -0.0066213140655184 [Eh]
	 SCS Opposite-Spin Energy  =      -0.2064602810737773 [Eh]
	 SCS Correlation Energy    =      -0.2130815951392957 [Eh]
	 SCS Total Energy          =    -190.9233057122465880 [Eh]
	-----------------------------------------------------------


*** tstop() called on trurls-machine at Thu Mar  5 14:01:41 2020
Module time:
	user time   =       0.64 seconds =       0.01 minutes
	system time =       0.02 seconds =       0.00 minutes
	total time  =          1 seconds =       0.02 minutes
Total time:
	user time   =       2.24 seconds =       0.04 minutes
	system time =       0.06 seconds =       0.00 minutes
	total time  =          3 seconds =       0.05 minutes

*** tstart() called on trurls-machine
*** at Thu Mar  5 14:01:41 2020

   => Loading Basis Set <=

    Name: STO-3G
    Role: ORBITAL
    Keyword: BASIS
    atoms 1-3  entry C          line    61 file /Users/teague/anaconda3/envs/gen_env/share/psi4/basis/sto-3g.gbs 
    atoms 4    entry O          line    81 file /Users/teague/anaconda3/envs/gen_env/share/psi4/basis/sto-3g.gbs 
    atoms 5-12 entry H          line    19 file /Users/teague/anaconda3/envs/gen_env/share/psi4/basis/sto-3g.gbs 


         ---------------------------------------------------------
                                   SCF
               by Justin Turney, Rob Parrish, Andy Simmonett
                          and Daniel G. A. Smith
                              RHF Reference
                        1 Threads,   7629 MiB Core
         ---------------------------------------------------------

  ==> Geometry <==

    Molecular point group: c1
    Full point group: C1

    Geometry (in Angstrom), charge = 0, multiplicity = 1:

       Center              X                  Y                   Z               Mass       
    ------------   -----------------  -----------------  -----------------  -----------------
         C           -0.886436890914     0.034026678389    -0.375483556122    12.000000000000
         C            0.525663109086    -0.448873321611    -0.718783556122    12.000000000000
         C            1.633163109086     0.396626678389    -0.080983556122    12.000000000000
         O           -1.189436890914    -0.047973321611     1.014016443878    15.994914619570
         H           -1.032536890914     1.061826678389    -0.749883556122     1.007825032230
         H           -1.628636890914    -0.599973321611    -0.871683556122     1.007825032230
         H            0.636963109086    -0.440373321611    -1.812083556122     1.007825032230
         H            0.624463109086    -1.493073321611    -0.395983556122     1.007825032230
         H            1.581463109086     0.360826678389     1.014216443878     1.007825032230
         H            1.562563109086     1.447726678389    -0.389883556122     1.007825032230
         H            2.626063109086     0.033326678389    -0.366783556122     1.007825032230
         H           -0.643236890914     0.608026678389     1.472416443878     1.007825032230

  Running in c1 symmetry.

  Rotational constants: A =      0.47434  B =      0.16761  C =      0.14080 [cm^-1]
  Rotational constants: A =  14220.37418  B =   5024.82819  C =   4221.13318 [MHz]
  Nuclear repulsion =  132.034161805363368

  Charge       = 0
  Multiplicity = 1
  Electrons    = 34
  Nalpha       = 17
  Nbeta        = 17

  ==> Algorithm <==

  SCF Algorithm Type is PK.
  DIIS enabled.
  MOM disabled.
  Fractional occupation disabled.
  Guess Type is SAD.
  Energy threshold   = 1.00e-06
  Density threshold  = 1.00e-06
  Integral threshold = 0.00e+00

  ==> Primary Basis <==

  Basis Set: STO-3G
    Blend: STO-3G
    Number of shells: 20
    Number of basis function: 28
    Number of Cartesian functions: 28
    Spherical Harmonics?: true
    Max angular momentum: 1

  ==> Pre-Iterations <==

   -------------------------------------------------------
    Irrep   Nso     Nmo     Nalpha   Nbeta   Ndocc  Nsocc
   -------------------------------------------------------
     A         28      28       0       0       0       0
   -------------------------------------------------------
    Total      28      28      17      17      17       0
   -------------------------------------------------------

  ==> Integral Setup <==

  Using in-core PK algorithm.
   Calculation information:
      Number of atoms:                  12
      Number of AO shells:              20
      Number of primitives:             60
      Number of atomic orbitals:        28
      Number of basis functions:        28

      Integral cutoff                 1.00e-12
      Number of threads:                 1

  Performing in-core PK
  Using 165242 doubles for integral storage.
  We computed 21513 shell quartets total.
  Whereas there are 22155 unique shell quartets.

  ==> DiskJK: Disk-Based J/K Matrices <==

    J tasked:                  Yes
    K tasked:                  Yes
    wK tasked:                  No
    Memory [MiB]:             5722
    Schwarz Cutoff:          1E-12

    OpenMP threads:              1

  Minimum eigenvalue in the overlap matrix is 2.0648504071E-01.
  Using Symmetric Orthogonalization.

  SCF Guess: Superposition of Atomic Densities via on-the-fly atomic UHF.

  ==> Iterations <==

                        Total Energy        Delta E     RMS |[F,P]|

   @RHF iter SAD:  -187.17852283760880   -1.87179e+02   0.00000e+00 
   @RHF iter   1:  -190.65099940164160   -3.47248e+00   1.00974e-02 DIIS
   @RHF iter   2:  -190.70682758599605   -5.58282e-02   2.53537e-03 DIIS
   @RHF iter   3:  -190.71000983805598   -3.18225e-03   5.14737e-04 DIIS
   @RHF iter   4:  -190.71022051404000   -2.10676e-04   6.06041e-05 DIIS
   @RHF iter   5:  -190.71022375433398   -3.24029e-06   1.73901e-05 DIIS
   @RHF iter   6:  -190.71022410579056   -3.51457e-07   3.24512e-06 DIIS
   @RHF iter   7:  -190.71022411710729   -1.13167e-08   7.75898e-07 DIIS
  Energy and wave function converged.


  ==> Post-Iterations <==

    Orbital Energies [Eh]
    ---------------------

    Doubly Occupied:                                                      

       1A    -20.248098     2A    -11.087558     3A    -11.048251  
       4A    -11.043507     5A     -1.280744     6A     -1.008671  
       7A     -0.882502     8A     -0.764779     9A     -0.628510  
      10A     -0.592419    11A     -0.550147    12A     -0.538741  
      13A     -0.484953    14A     -0.459948    15A     -0.450675  
      16A     -0.397419    17A     -0.345680  

    Virtual:                                                              

      18A      0.565423    19A      0.606062    20A      0.622769  
      21A      0.640662    22A      0.706988    23A      0.721905  
      24A      0.727830    25A      0.758889    26A      0.773919  
      27A      0.780589    28A      0.806883  

    Final Occupation by Irrep:
              A 
    DOCC [    17 ]

  @RHF Final Energy:  -190.71022411710729

   => Energetics <=

    Nuclear Repulsion Energy =            132.0341618053633681
    One-Electron Energy =                -521.8635763604390831
    Two-Electron Energy =                 199.1191904379683990
    Total Energy =                       -190.7102241171072876

Computation Completed


Properties will be evaluated at   0.000000,   0.000000,   0.000000 [a0]

Properties computed using the SCF density matrix

  Nuclear Dipole Moment: [e a0]
     X:     3.4883      Y:     0.9169      Z:    -1.9635

  Electronic Dipole Moment: [e a0]
     X:    -3.0633      Y:    -0.5754      Z:     1.7199

  Dipole Moment: [e a0]
     X:     0.4250      Y:     0.3415      Z:    -0.2436     Total:     0.5972

  Dipole Moment: [D]
     X:     1.0803      Y:     0.8681      Z:    -0.6192     Total:     1.5179


*** tstop() called on trurls-machine at Thu Mar  5 14:01:41 2020
Module time:
	user time   =       0.46 seconds =       0.01 minutes
	system time =       0.01 seconds =       0.00 minutes
	total time  =          0 seconds =       0.00 minutes
Total time:
	user time   =       2.83 seconds =       0.05 minutes
	system time =       0.09 seconds =       0.00 minutes
	total time  =          3 seconds =       0.05 minutes
 MINTS: Wrapper to libmints.
   by Justin Turney

   Calculation information:
      Number of threads:                 1
      Number of atoms:                  12
      Number of AO shells:              20
      Number of SO shells:              20
      Number of primitives:             60
      Number of atomic orbitals:        28
      Number of basis functions:        28

      Number of irreps:                  1
      Integral cutoff                 0.00e+00
      Number of functions per irrep: [  28 ]

 OEINTS: Overlap, kinetic, potential, dipole, and quadrupole integrals
         stored in file 35.

      Computing two-electron integrals...done
      Computed 82405 non-zero two-electron integrals.
        Stored in file 33.


         ---------------------------------------------------------
                          Configuration Interaction
                            (a 'D E T C I' module)

                 C. David Sherrill, Daniel G. A. Smith, and
                              Matt L. Leininger
         ---------------------------------------------------------


   ==> Parameters <==

    EX LEVEL       =        2      H0 BLOCKSIZE  =     1000
    VAL EX LEVEL   =        0      H0 GUESS SIZE =     1000
    H0COUPLINGSIZE =        0      H0 COUPLING   =       NO
    MAXITER        =       24      NUM PRINT     =       20
    NUM ROOTS      =        1      ICORE         =        1
    PRINT LVL      =        1      FCI           =       NO
    R CONV         = 1.00e-06      MIXED         =      YES
    E CONV         = 1.00e-06      MIXED4        =      YES
    R4S            =       NO      REPL OTF      =       NO
    DIAG METHOD    =      SEM      FOLLOW ROOT   =        0
    PRECONDITIONER = DAVIDSON      UPDATE        = DAVIDSON
    S              =   0.0000      Ms0           =      YES
    GUESS VECTOR   =  H0BLOCK      OPENTYPE      =     NONE
    COLLAPSE SIZE  =        1      HD AVG        = EVANGELISTI
    MAX NUM VECS   =       25      REF SYM       =     AUTO
    IOPEN        =       NO

    EX ALLOW       =  1  1 
    STATE AVERAGE  =  0(1.00) 

   ==> CI Orbital and Space information <==

    RAS1 LVL      =       16      A RAS3 MAX    =        2
    RAS1 MIN      =       32      B RAS3 MAX    =        2
    A RAS1 LVL    =       16      RAS4 LVL      =       28
    A RAS1 MIN    =       15      A RAS4 MAX    =        0
    A RAS1 MAX    =       17      B RAS4 MAX    =        0
    B RAS1 LVL    =       16      RAS4 MAX      =        0
    B RAS1 MIN    =       15      A RAS34 MAX   =        2
    B RAS1 MAX    =       17      B RAS34 MAX   =        2
    RAS3 LVL      =       17      RAS34 MAX     =        2
    RAS3 MAX      =        2
   ------------------------------------
               Space    Total     A
   ------------------------------------
                 Nso       28    28
                 Nmo       28    28
               Ndocc       17    17
               Nsocc        0     0
   ------------------------------------
              CI Spaces
   ------------------------------------
        Dropped DOCC        0     0
                RAS1       17    17
                RAS2        0     0
                RAS3       11    11
                RAS4        0     0
      Active (total)       28    28
        Dropped UOCC        0     0
   ------------------------------------

   ==> Setting up CI strings <==

    There are 7668 alpha and 7668 beta strings
    The CI space requires 50304 (5.03E+04) determinants and 6 blocks

   ==> Transforming CI integrals <==

	Presorting SO-basis two-electron integrals.
	Sorting File: SO Ints (nn|nn) nbuckets = 1
	Transforming the one-electron integrals and constructing Fock matrices
	Starting first half-transformation.
	Sorting half-transformed integrals.
	First half integral transformation complete.
	Starting second half-transformation.
	Two-electron integral transformation complete.

   ==> Starting CI iterations <==

    H0 Block Eigenvalue = -190.72012046

    Simultaneous Expansion Method (Block Davidson Method)
    Using 1 initial trial vectors

     Iter   Root       Total Energy       Delta E      C RMS

   @CI  0:     0   -190.720120458037   -3.2275E+02   7.1370E-01  
   @CI  1:     0   -190.934671228511   -2.1455E-01   1.1562E-01  
   @CI  2:     0   -190.940413158527   -5.7419E-03   2.5532E-02  
   @CI  3:     0   -190.940660278563   -2.4712E-04   6.1730E-03  
   @CI  4:     0   -190.940676953692   -1.6675E-05   1.9415E-03  
   @CI  5:     0   -190.940678236681   -1.2830E-06   4.3819E-04  
   @CI  6:     0   -190.940678308050   -7.1368E-08   1.0870E-04  
   @CI  7:     0   -190.940678312048   -3.9981E-09   2.8167E-05  
   @CI  8:     0   -190.940678312367   -3.1940E-10   8.6221E-06  
   @CI  9:     0   -190.940678312395   -2.7910E-11   2.2007E-06  
   @CI 10:     0   -190.940678312397   -1.3642E-12   5.3413E-07 c

   ==> Energetics <==

    SCF energy =         -190.710224117107288
    Total CI energy =    -190.940678312396614

   ==> CISD root 0 information <==

    CISD Root 0 energy =  -190.940678312396614

   The 20 most important determinants:

    *   1   -0.948753  (    0,    0)  1AX 2AX 3AX 4AX 5AX 6AX 7AX 8AX 9AX 10AX 11AX 12AX 13AX 14AX 15AX 16AX 17AX 
    *   2    0.024064  (    2,    2)  1AX 2AX 3AX 4AX 5AX 6AX 7AX 8AX 9AX 10AX 11AX 12AX 13AX 14AX 15AX 17AX 18AX 
    *   3    0.023377  (   56,   56)  1AX 2AX 3AX 4AX 5AX 6AX 7AX 8AX 9AX 10AX 11AX 12AX 14AX 15AX 16AX 17AX 21AX 
    *   4    0.018091  (   92,   92)  1AX 2AX 3AX 4AX 5AX 6AX 7AX 8AX 9AX 10AX 12AX 13AX 14AX 15AX 16AX 17AX 23AX 
    *   5    0.017553  (   13,   13)  1AX 2AX 3AX 4AX 6AX 7AX 8AX 9AX 10AX 11AX 12AX 13AX 14AX 15AX 16AX 17AX 18AX 
    *   6    0.017540  (   21,   21)  1AX 2AX 3AX 4AX 5AX 6AX 7AX 8AX 9AX 10AX 11AX 12AX 13AX 15AX 16AX 17AX 19AX 
    *   7    0.017463  (  141,  141)  1AX 2AX 3AX 4AX 5AX 6AX 7AX 8AX 9AX 10AX 11AX 12AX 14AX 15AX 16AX 17AX 26AX 
    *   8    0.017370  (  156,  156)  1AX 2AX 3AX 4AX 5AX 6AX 7AX 8AX 9AX 10AX 11AX 12AX 13AX 14AX 16AX 17AX 27AX 
    *   9    0.016600  (   38,   38)  1AX 2AX 3AX 4AX 5AX 6AX 7AX 8AX 9AX 10AX 11AX 12AX 13AX 15AX 16AX 17AX 20AX 
    *  10    0.016346  (  174,  174)  1AX 2AX 3AX 4AX 5AX 6AX 7AX 8AX 9AX 10AX 11AX 12AX 13AX 15AX 16AX 17AX 28AX 
    *  11    0.015743  (   89,   89)  1AX 2AX 3AX 4AX 5AX 6AX 7AX 8AX 9AX 10AX 11AX 12AX 13AX 15AX 16AX 17AX 23AX 
    *  12   -0.015621  (    2,   13)  1AX 2AX 3AX 4AX 5AA 6AX 7AX 8AX 9AX 10AX 11AX 12AX 13AX 14AX 15AX 16AB 17AX 18AX 
    *  13   -0.015621  (   13,    2)  1AX 2AX 3AX 4AX 5AB 6AX 7AX 8AX 9AX 10AX 11AX 12AX 13AX 14AX 15AX 16AA 17AX 18AX 
    *  14    0.014999  (   41,   41)  1AX 2AX 3AX 4AX 5AX 6AX 7AX 8AX 9AX 10AX 12AX 13AX 14AX 15AX 16AX 17AX 20AX 
    *  15    0.014654  (   23,   23)  1AX 2AX 3AX 4AX 5AX 6AX 7AX 8AX 9AX 10AX 11AX 13AX 14AX 15AX 16AX 17AX 19AX 
    *  16    0.014398  (   59,   59)  1AX 2AX 3AX 4AX 5AX 6AX 7AX 8AX 9AX 11AX 12AX 13AX 14AX 15AX 16AX 17AX 21AX 
    *  17    0.014362  (    3,    3)  1AX 2AX 3AX 4AX 5AX 6AX 7AX 8AX 9AX 10AX 11AX 12AX 13AX 14AX 16AX 17AX 18AX 
    *  18    0.014343  (    6,    6)  1AX 2AX 3AX 4AX 5AX 6AX 7AX 8AX 9AX 10AX 11AX 13AX 14AX 15AX 16AX 17AX 18AX 
    *  19    0.014272  (    1,    1)  1AX 2AX 3AX 4AX 5AX 6AX 7AX 8AX 9AX 10AX 11AX 12AX 13AX 14AX 15AX 16AX 18AX 
    *  20   -0.013821  (   21,   38)  1AX 2AX 3AX 4AX 5AX 6AX 7AX 8AX 9AX 10AX 11AX 12AX 13AX 15AX 16AX 17AX 19AA 20AB 

		 "A good bug is a dead bug" 

			 - Starship Troopers

		 "I didn't write FORTRAN.  That's the problem."

			 - Edward Valeev

*** tstart() called on trurls-machine
*** at Thu Mar  5 14:01:50 2020

   => Loading Basis Set <=

    Name: STO-3G
    Role: ORBITAL
    Keyword: BASIS
    atoms 1-3  entry C          line    61 file /Users/teague/anaconda3/envs/gen_env/share/psi4/basis/sto-3g.gbs 
    atoms 4    entry O          line    81 file /Users/teague/anaconda3/envs/gen_env/share/psi4/basis/sto-3g.gbs 
    atoms 5-12 entry H          line    19 file /Users/teague/anaconda3/envs/gen_env/share/psi4/basis/sto-3g.gbs 


         ---------------------------------------------------------
                                   SCF
               by Justin Turney, Rob Parrish, Andy Simmonett
                          and Daniel G. A. Smith
                              RHF Reference
                        1 Threads,   7629 MiB Core
         ---------------------------------------------------------

  ==> Geometry <==

    Molecular point group: c1
    Full point group: C1

    Geometry (in Angstrom), charge = 0, multiplicity = 1:

       Center              X                  Y                   Z               Mass       
    ------------   -----------------  -----------------  -----------------  -----------------
         C           -0.886436890914     0.034026678389    -0.375483556122    12.000000000000
         C            0.525663109086    -0.448873321611    -0.718783556122    12.000000000000
         C            1.633163109086     0.396626678389    -0.080983556122    12.000000000000
         O           -1.189436890914    -0.047973321611     1.014016443878    15.994914619570
         H           -1.032536890914     1.061826678389    -0.749883556122     1.007825032230
         H           -1.628636890914    -0.599973321611    -0.871683556122     1.007825032230
         H            0.636963109086    -0.440373321611    -1.812083556122     1.007825032230
         H            0.624463109086    -1.493073321611    -0.395983556122     1.007825032230
         H            1.581463109086     0.360826678389     1.014216443878     1.007825032230
         H            1.562563109086     1.447726678389    -0.389883556122     1.007825032230
         H            2.626063109086     0.033326678389    -0.366783556122     1.007825032230
         H           -0.643236890914     0.608026678389     1.472416443878     1.007825032230

  Running in c1 symmetry.

  Rotational constants: A =      0.47434  B =      0.16761  C =      0.14080 [cm^-1]
  Rotational constants: A =  14220.37418  B =   5024.82819  C =   4221.13318 [MHz]
  Nuclear repulsion =  132.034161805363368

  Charge       = 0
  Multiplicity = 1
  Electrons    = 34
  Nalpha       = 17
  Nbeta        = 17

  ==> Algorithm <==

  SCF Algorithm Type is PK.
  DIIS enabled.
  MOM disabled.
  Fractional occupation disabled.
  Guess Type is SAD.
  Energy threshold   = 1.00e-06
  Density threshold  = 1.00e-06
  Integral threshold = 0.00e+00

  ==> Primary Basis <==

  Basis Set: STO-3G
    Blend: STO-3G
    Number of shells: 20
    Number of basis function: 28
    Number of Cartesian functions: 28
    Spherical Harmonics?: true
    Max angular momentum: 1

  ==> Pre-Iterations <==

   -------------------------------------------------------
    Irrep   Nso     Nmo     Nalpha   Nbeta   Ndocc  Nsocc
   -------------------------------------------------------
     A         28      28       0       0       0       0
   -------------------------------------------------------
    Total      28      28      17      17      17       0
   -------------------------------------------------------

  ==> Integral Setup <==

  Using in-core PK algorithm.
   Calculation information:
      Number of atoms:                  12
      Number of AO shells:              20
      Number of primitives:             60
      Number of atomic orbitals:        28
      Number of basis functions:        28

      Integral cutoff                 1.00e-12
      Number of threads:                 1

  Performing in-core PK
  Using 165242 doubles for integral storage.
  We computed 21513 shell quartets total.
  Whereas there are 22155 unique shell quartets.

  ==> DiskJK: Disk-Based J/K Matrices <==

    J tasked:                  Yes
    K tasked:                  Yes
    wK tasked:                  No
    Memory [MiB]:             5722
    Schwarz Cutoff:          1E-12

    OpenMP threads:              1

  Minimum eigenvalue in the overlap matrix is 2.0648504071E-01.
  Using Symmetric Orthogonalization.

  SCF Guess: Superposition of Atomic Densities via on-the-fly atomic UHF.

  ==> Iterations <==

                        Total Energy        Delta E     RMS |[F,P]|

   @RHF iter SAD:  -187.17852283760880   -1.87179e+02   0.00000e+00 
   @RHF iter   1:  -190.65099940164160   -3.47248e+00   1.00974e-02 DIIS
   @RHF iter   2:  -190.70682758599605   -5.58282e-02   2.53537e-03 DIIS
   @RHF iter   3:  -190.71000983805598   -3.18225e-03   5.14737e-04 DIIS
   @RHF iter   4:  -190.71022051404000   -2.10676e-04   6.06041e-05 DIIS
   @RHF iter   5:  -190.71022375433398   -3.24029e-06   1.73901e-05 DIIS
   @RHF iter   6:  -190.71022410579056   -3.51457e-07   3.24512e-06 DIIS
   @RHF iter   7:  -190.71022411710729   -1.13167e-08   7.75898e-07 DIIS
  Energy and wave function converged.


  ==> Post-Iterations <==

    Orbital Energies [Eh]
    ---------------------

    Doubly Occupied:                                                      

       1A    -20.248098     2A    -11.087558     3A    -11.048251  
       4A    -11.043507     5A     -1.280744     6A     -1.008671  
       7A     -0.882502     8A     -0.764779     9A     -0.628510  
      10A     -0.592419    11A     -0.550147    12A     -0.538741  
      13A     -0.484953    14A     -0.459948    15A     -0.450675  
      16A     -0.397419    17A     -0.345680  

    Virtual:                                                              

      18A      0.565423    19A      0.606062    20A      0.622769  
      21A      0.640662    22A      0.706988    23A      0.721905  
      24A      0.727830    25A      0.758889    26A      0.773919  
      27A      0.780589    28A      0.806883  

    Final Occupation by Irrep:
              A 
    DOCC [    17 ]

  @RHF Final Energy:  -190.71022411710729

   => Energetics <=

    Nuclear Repulsion Energy =            132.0341618053633681
    One-Electron Energy =                -521.8635763604390831
    Two-Electron Energy =                 199.1191904379683990
    Total Energy =                       -190.7102241171072876

Computation Completed


Properties will be evaluated at   0.000000,   0.000000,   0.000000 [a0]

Properties computed using the SCF density matrix

  Nuclear Dipole Moment: [e a0]
     X:     3.4883      Y:     0.9169      Z:    -1.9635

  Electronic Dipole Moment: [e a0]
     X:    -3.0633      Y:    -0.5754      Z:     1.7199

  Dipole Moment: [e a0]
     X:     0.4250      Y:     0.3415      Z:    -0.2436     Total:     0.5972

  Dipole Moment: [D]
     X:     1.0803      Y:     0.8681      Z:    -0.6192     Total:     1.5179


*** tstop() called on trurls-machine at Thu Mar  5 14:01:51 2020
Module time:
	user time   =       0.49 seconds =       0.01 minutes
	system time =       0.02 seconds =       0.00 minutes
	total time  =          1 seconds =       0.02 minutes
Total time:
	user time   =      12.06 seconds =       0.20 minutes
	system time =       0.40 seconds =       0.01 minutes
	total time  =         13 seconds =       0.22 minutes
 MINTS: Wrapper to libmints.
   by Justin Turney

   Calculation information:
      Number of threads:                 1
      Number of atoms:                  12
      Number of AO shells:              20
      Number of SO shells:              20
      Number of primitives:             60
      Number of atomic orbitals:        28
      Number of basis functions:        28

      Number of irreps:                  1
      Integral cutoff                 0.00e+00
      Number of functions per irrep: [  28 ]

 OEINTS: Overlap, kinetic, potential, dipole, and quadrupole integrals
         stored in file 35.

      Computing two-electron integrals...done
      Computed 82405 non-zero two-electron integrals.
        Stored in file 33.


         ---------------------------------------------------------
                          Configuration Interaction
                            (a 'D E T C I' module)

                 C. David Sherrill, Daniel G. A. Smith, and
                              Matt L. Leininger
         ---------------------------------------------------------


   ==> Parameters <==

    EX LEVEL       =       34      H0 BLOCKSIZE  =     1000
    VAL EX LEVEL   =        0      H0 GUESS SIZE =     1000
    H0COUPLINGSIZE =        0      H0 COUPLING   =       NO
    MAXITER        =       24      NUM PRINT     =       20
    NUM ROOTS      =        1      ICORE         =        1
    PRINT LVL      =        1      FCI           =      YES
    R CONV         = 1.00e-06      MIXED         =      YES
    E CONV         = 1.00e-06      MIXED4        =      YES
    R4S            =       NO      REPL OTF      =       NO
    DIAG METHOD    =      SEM      FOLLOW ROOT   =        0
    PRECONDITIONER = DAVIDSON      UPDATE        = DAVIDSON
    S              =   0.0000      Ms0           =      YES
    GUESS VECTOR   =  H0BLOCK      OPENTYPE      =     NONE
    COLLAPSE SIZE  =        1      HD AVG        = EVANGELISTI
    MAX NUM VECS   =       25      REF SYM       =     AUTO
    IOPEN        =       NO

    EX ALLOW       =  1  1  1  1  1  1  1  1  1  1  1  1  1  1  1  1  1  1  1  1  1  1  1  1  1  1  1  1  1  1  1  1  1  1 
    STATE AVERAGE  =  0(1.00) 

   ==> CI Orbital and Space information <==

   ------------------------------------
               Space    Total     A
   ------------------------------------
                 Nso       28    28
                 Nmo       28    28
               Ndocc       17    17
               Nsocc        0     0
   ------------------------------------
              CI Spaces
   ------------------------------------
        Dropped DOCC        0     0
              Active       28    28
        Dropped UOCC        0     0
   ------------------------------------

   ==> Setting up CI strings <==

