
    -----------------------------------------------------------------------
          Psi4: An Open-Source Ab Initio Electronic Structure Package
                               Psi4 1.3.2 release

                         Git: Rev {HEAD} ecbda83 


    R. M. Parrish, L. A. Burns, D. G. A. Smith, A. C. Simmonett,
    A. E. DePrince III, E. G. Hohenstein, U. Bozkaya, A. Yu. Sokolov,
    R. Di Remigio, R. M. Richard, J. F. Gonthier, A. M. James,
    H. R. McAlexander, A. Kumar, M. Saitow, X. Wang, B. P. Pritchard,
    P. Verma, H. F. Schaefer III, K. Patkowski, R. A. King, E. F. Valeev,
    F. A. Evangelista, J. M. Turney, T. D. Crawford, and C. D. Sherrill,
    J. Chem. Theory Comput. 13(7) pp 3185--3197 (2017).
    (doi: 10.1021/acs.jctc.7b00174)


                         Additional Contributions by
    P. Kraus, H. Kruse, M. H. Lechner, M. C. Schieber, R. A. Shaw,
    A. Alenaizan, R. Galvelis, Z. L. Glick, S. Lehtola, and J. P. Misiewicz

    -----------------------------------------------------------------------


    Psi4 started on: Wednesday, 04 March 2020 11:03PM

    Process ID: 96187
    Host:       trurls-machine
    PSIDATADIR: /Users/teague/anaconda3/envs/gen_env/share/psi4
    Memory:     500.0 MiB
    Threads:    1
    
  ==> Input File <==

--------------------------------------------------------------------------
"""This is a template for psi4 input format."""
import numpy
import sys

from openfermion.config import *
from openfermion.hamiltonians import MolecularData
from openfermion.ops import general_basis_change

from numpy import array

sys.path.append('/Users/teague/.local/lib/python3.7/site-packages/openfermionpsi4')
from _psi4_conversion_functions import *


# Set memory that job can use in megabytes.
memory 8000 mb

# Initialize molecular data.
_description = 'NIST'
if _description == 'None':
    _description = None
molecule = MolecularData([('N', (0.8714, 0.5043, -0.01)), ('H', (-0.013, -0.0027, 0.0058)), ('H', (1.5999, -0.2089, 0.0058)), ('H', (0.9266, 0.9355, -0.9324))],
                         'sto-3g',
                         1,
                         0,
                         _description,
                          filename='molecule_data/Ammonia_sto-3g_singlet_NIST')

# Set molecular geometry and symmetry.
molecule mol {
N 0.8714 0.5043 -0.01
H -0.013 -0.0027 0.0058
H 1.5999 -0.2089 0.0058
H 0.9266 0.9355 -0.9324
symmetry c1
}
mol.set_multiplicity(1)
mol.set_molecular_charge(0)

# Set reference and guess.
if molecule.multiplicity == 1:
    set reference rhf
    set guess sad
else:
    set reference rohf
    set guess gwh

# Set global parameters of calculation.
set globals {
    basis sto-3g
    freeze_core false
    fail_on_maxiter True
    df_scf_guess false
    opdm true
    tpdm true
    soscf false
    scf_type pk
    maxiter 1e6
    num_amps_print 1e6
    r_convergence 1e-6
    d_convergence 1e-6
    e_convergence 1e-6
    ints_tolerance EQUALITY_TOLERANCE
    damping_percentage 0
}

# Run self-consistent field (SCF) calculation.
if True:
    try:
        hf_energy, hf_wavefunction = energy('scf', return_wfn=True)
        if False:
            print('Hartree-Fock energy for {} ({} electrons) is {}.'.format(
                molecule.name, molecule.n_electrons, hf_energy))
    except:
        if False:
            print('WARNING: SCF calculation failed.')
        else:
            raise
    finally:
        # Get orbitals and Fock matrix.
        molecule.hf_energy = hf_energy
        molecule.nuclear_repulsion = mol.nuclear_repulsion_energy()
        molecule.canonical_orbitals = numpy.asarray(hf_wavefunction.Ca())
        molecule.overlap_integrals = numpy.asarray(hf_wavefunction.S())
        molecule.n_orbitals = molecule.canonical_orbitals.shape[0]
        molecule.n_qubits = 2 * molecule.n_orbitals
        molecule.orbital_energies = numpy.asarray(hf_wavefunction.epsilon_a())
        molecule.fock_matrix = numpy.asarray(hf_wavefunction.Fa())

        # Get integrals using MintsHelper.
        mints = MintsHelper(hf_wavefunction.basisset())
        molecule.one_body_integrals = general_basis_change(
            numpy.asarray(mints.ao_kinetic()), molecule.canonical_orbitals, (1, 0))
        molecule.one_body_integrals += general_basis_change(
            numpy.asarray(mints.ao_potential()), molecule.canonical_orbitals, (1, 0))
        two_body_integrals = numpy.asarray(mints.ao_eri())
        two_body_integrals.reshape((molecule.n_orbitals, molecule.n_orbitals,
                                    molecule.n_orbitals, molecule.n_orbitals))
        two_body_integrals = numpy.einsum('psqr', two_body_integrals)
        two_body_integrals = general_basis_change(
            two_body_integrals, molecule.canonical_orbitals, (1, 1, 0, 0))
        molecule.two_body_integrals = two_body_integrals
        molecule.save()


# Perform MP2 energy calculation if there are at least two electrons.
if True:
    try:
        assert molecule.n_electrons > 1
        mp2_energy = energy('mp2')
        if False:
            print('MP2 energy for {} ({} electrons) is {}.'.format(
                molecule.name, molecule.n_electrons, mp2_energy))
    except:
        if False:
            print('WARNING: MP2 calculation failed.')
        else:
            raise
    else:
        molecule.mp2_energy = mp2_energy
        molecule.save()


# Perform configuration interaction singles and doubles (CISD) calculation.
if True:
    set qc_module detci
    try:
        cisd_energy, cisd_wavefunction = energy('cisd', return_wfn=True)
        if False:
            print('CISD energy for {} ({} electrons) is {}.'.format(
                molecule.name, molecule.n_electrons, cisd_energy))
    except:
        if False:
            print('WARNING: CISD calculation failed.')
        else:
            raise
    else:
        # For the functions below, "a" and "b" refer to "up and "down" spins.
        molecule.cisd_energy = cisd_energy

        # Get 1-RDM from CISD calculation.
        cisd_one_rdm_a = numpy.array(cisd_wavefunction.get_opdm(
            0, 0, 'A', True)).reshape(molecule.n_orbitals, molecule.n_orbitals)
        cisd_one_rdm_b = numpy.array(cisd_wavefunction.get_opdm(
            0, 0, 'B', True)).reshape(molecule.n_orbitals, molecule.n_orbitals)

        # Get 2-RDM from CISD calculation.
        cisd_two_rdm_aa = numpy.array(cisd_wavefunction.get_tpdm(
            'AA', False)).reshape(molecule.n_orbitals, molecule.n_orbitals,
                                  molecule.n_orbitals, molecule.n_orbitals)
        cisd_two_rdm_ab = numpy.array(cisd_wavefunction.get_tpdm(
            'AB', False)).reshape(molecule.n_orbitals, molecule.n_orbitals,
                                  molecule.n_orbitals, molecule.n_orbitals)
        cisd_two_rdm_bb = numpy.array(cisd_wavefunction.get_tpdm(
            'BB', False)).reshape(molecule.n_orbitals, molecule.n_orbitals,
                                  molecule.n_orbitals, molecule.n_orbitals)

        # Get overall RDMs.
        cisd_one_rdm, cisd_two_rdm = unpack_spatial_rdm(
            cisd_one_rdm_a, cisd_one_rdm_b, cisd_two_rdm_aa,
            cisd_two_rdm_ab, cisd_two_rdm_bb)

        # Store 1-RDM in molecule file, 2-RDM separately in other file.
        molecule.cisd_one_rdm = cisd_one_rdm
        molecule.cisd_two_rdm = cisd_two_rdm
        molecule.save()


# Perform exact diagonalization.
if True:
    set qc_module detci
    try:
        fci_energy, fci_wavefunction = energy('fci', return_wfn=True)
        if False:
            print('FCI energy for {} ({} electrons) is {}.'.format(
                molecule.name, molecule.n_electrons, fci_energy))
    except:
        if False:
            print('WARNING: FCI calculation failed.')
        else:
            raise
    finally:
        # For the functions below, "a" and "b" refer to "up and "down" spins.
        molecule.fci_energy = fci_energy

        # Get 1-RDM from FCI calculation.
        fci_one_rdm_a = numpy.array(fci_wavefunction.get_opdm(
            0, 0, 'A', True)).reshape(molecule.n_orbitals, molecule.n_orbitals)
        fci_one_rdm_b = numpy.array(fci_wavefunction.get_opdm(
            0, 0, 'B', True)).reshape(molecule.n_orbitals, molecule.n_orbitals)

        # Get 2-RDM from FCI calculation.
        fci_two_rdm_aa = numpy.array(fci_wavefunction.get_tpdm(
            'AA', False)).reshape(molecule.n_orbitals, molecule.n_orbitals,
                                  molecule.n_orbitals, molecule.n_orbitals)
        fci_two_rdm_ab = numpy.array(fci_wavefunction.get_tpdm(
            'AB', False)).reshape(molecule.n_orbitals, molecule.n_orbitals,
                                  molecule.n_orbitals, molecule.n_orbitals)
        fci_two_rdm_bb = numpy.array(fci_wavefunction.get_tpdm(
            'BB', False)).reshape(molecule.n_orbitals, molecule.n_orbitals,
                                  molecule.n_orbitals, molecule.n_orbitals)

        # Get overall RDMs.
        fci_one_rdm, fci_two_rdm = unpack_spatial_rdm(
            fci_one_rdm_a, fci_one_rdm_b,
            fci_two_rdm_aa, fci_two_rdm_ab, fci_two_rdm_bb)

        # Store 1-RDM in molecule file, 2-RDM separately in other file.
        molecule.fci_one_rdm = fci_one_rdm
        molecule.fci_two_rdm = fci_two_rdm
        molecule.save()


# Perform coupled cluster singles and doubles (CCSD) calculation.
if True:
    set qc_module ccenergy
    try:
        ccsd_energy = energy('ccsd')
        if False:
            print('CCSD energy for {} ({} electrons) is {}.'.format(
                molecule.name, molecule.n_electrons, ccsd_energy))
    except:
        if False:
            print('WARNING: CCSD calculation failed.')
        else:
            raise
    else:
        molecule.ccsd_energy = ccsd_energy

        # Merge CC amplitudes into molecule by parsing
        psi_filename = outfile_name()
        single_cc_amplitudes, double_cc_amplitudes = (
            parse_psi4_ccsd_amplitudes(
                2 * molecule.n_orbitals,
                molecule.get_n_alpha_electrons(),
                molecule.get_n_beta_electrons(),
                psi_filename))

        molecule.ccsd_single_amps = single_cc_amplitudes
        molecule.ccsd_double_amps = double_cc_amplitudes
        molecule.save()
--------------------------------------------------------------------------

  Memory set to   7.451 GiB by Python driver.

*** tstart() called on trurls-machine
*** at Wed Mar  4 23:03:24 2020

   => Loading Basis Set <=

    Name: STO-3G
    Role: ORBITAL
    Keyword: BASIS
    atoms 1   entry N          line    71 file /Users/teague/anaconda3/envs/gen_env/share/psi4/basis/sto-3g.gbs 
    atoms 2-4 entry H          line    19 file /Users/teague/anaconda3/envs/gen_env/share/psi4/basis/sto-3g.gbs 


         ---------------------------------------------------------
                                   SCF
               by Justin Turney, Rob Parrish, Andy Simmonett
                          and Daniel G. A. Smith
                              RHF Reference
                        1 Threads,   7629 MiB Core
         ---------------------------------------------------------

  ==> Geometry <==

    Molecular point group: c1
    Full point group: C1

    Geometry (in Angstrom), charge = 0, multiplicity = 1:

       Center              X                  Y                   Z               Mass       
    ------------   -----------------  -----------------  -----------------  -----------------
         N            0.005960572524     0.046702003190     0.052727686237    14.003074004430
         H           -0.878439427476    -0.460297996810     0.068527686237     1.007825032230
         H            0.734460572524    -0.666497996810     0.068527686237     1.007825032230
         H            0.061160572524     0.477902003190    -0.869672313763     1.007825032230

  Running in c1 symmetry.

  Rotational constants: A =      9.76756  B =      9.76481  C =      6.32753 [cm^-1]
  Rotational constants: A = 292824.12525  B = 292741.70207  C = 189694.69637 [MHz]
  Nuclear repulsion =   11.875289621125146

  Charge       = 0
  Multiplicity = 1
  Electrons    = 10
  Nalpha       = 5
  Nbeta        = 5

  ==> Algorithm <==

  SCF Algorithm Type is PK.
  DIIS enabled.
  MOM disabled.
  Fractional occupation disabled.
  Guess Type is SAD.
  Energy threshold   = 1.00e-06
  Density threshold  = 1.00e-06
  Integral threshold = 0.00e+00

  ==> Primary Basis <==

  Basis Set: STO-3G
    Blend: STO-3G
    Number of shells: 6
    Number of basis function: 8
    Number of Cartesian functions: 8
    Spherical Harmonics?: true
    Max angular momentum: 1

  ==> Pre-Iterations <==

   -------------------------------------------------------
    Irrep   Nso     Nmo     Nalpha   Nbeta   Ndocc  Nsocc
   -------------------------------------------------------
     A          8       8       0       0       0       0
   -------------------------------------------------------
    Total       8       8       5       5       5       0
   -------------------------------------------------------

  ==> Integral Setup <==

  Using in-core PK algorithm.
   Calculation information:
      Number of atoms:                   4
      Number of AO shells:               6
      Number of primitives:             18
      Number of atomic orbitals:         8
      Number of basis functions:         8

      Integral cutoff                 1.00e-12
      Number of threads:                 1

  Performing in-core PK
  Using 1332 doubles for integral storage.
  We computed 231 shell quartets total.
  Whereas there are 231 unique shell quartets.

  ==> DiskJK: Disk-Based J/K Matrices <==

    J tasked:                  Yes
    K tasked:                  Yes
    wK tasked:                  No
    Memory [MiB]:             5722
    Schwarz Cutoff:          1E-12

    OpenMP threads:              1

  Minimum eigenvalue in the overlap matrix is 2.7150517194E-01.
  Using Symmetric Orthogonalization.

  SCF Guess: Superposition of Atomic Densities via on-the-fly atomic UHF.

  ==> Iterations <==

                        Total Energy        Delta E     RMS |[F,P]|

   @RHF iter SAD:   -54.49784520995789   -5.44978e+01   0.00000e+00 
   @RHF iter   1:   -55.43249405051025   -9.34649e-01   2.15040e-02 DIIS
   @RHF iter   2:   -55.45408857878386   -2.15945e-02   4.44492e-03 DIIS
   @RHF iter   3:   -55.45483459283112   -7.46014e-04   8.97298e-04 DIIS
   @RHF iter   4:   -55.45487866393983   -4.40711e-05   7.64080e-06 DIIS
   @RHF iter   5:   -55.45487866950337   -5.56354e-09   2.80394e-06 DIIS
   @RHF iter   6:   -55.45487867034229   -8.38916e-10   3.53050e-08 DIIS
  Energy and wave function converged.


  ==> Post-Iterations <==

    Orbital Energies [Eh]
    ---------------------

    Doubly Occupied:                                                      

       1A    -15.307671     2A     -1.089212     3A     -0.568706  
       4A     -0.568579     5A     -0.354687  

    Virtual:                                                              

       6A      0.634730     7A      0.719372     8A      0.719598  

    Final Occupation by Irrep:
              A 
    DOCC [     5 ]

  @RHF Final Energy:   -55.45487867034229

   => Energetics <=

    Nuclear Repulsion Energy =             11.8752896211251464
    One-Electron Energy =                 -98.8826280401881945
    Two-Electron Energy =                  31.5524597487207572
    Total Energy =                        -55.4548786703422891

Computation Completed


Properties will be evaluated at   0.000000,   0.000000,   0.000000 [a0]

Properties computed using the SCF density matrix

  Nuclear Dipole Moment: [e a0]
     X:    -0.0777      Y:    -0.6085      Z:    -0.6870

  Electronic Dipole Moment: [e a0]
     X:     0.0171      Y:     0.1343      Z:     0.1520

  Dipole Moment: [e a0]
     X:    -0.0606      Y:    -0.4741      Z:    -0.5350     Total:     0.7174

  Dipole Moment: [D]
     X:    -0.1540      Y:    -1.2051      Z:    -1.3598     Total:     1.8235


*** tstop() called on trurls-machine at Wed Mar  4 23:03:25 2020
Module time:
	user time   =       0.20 seconds =       0.00 minutes
	system time =       0.02 seconds =       0.00 minutes
	total time  =          1 seconds =       0.02 minutes
Total time:
	user time   =       0.20 seconds =       0.00 minutes
	system time =       0.02 seconds =       0.00 minutes
	total time  =          1 seconds =       0.02 minutes

*** tstart() called on trurls-machine
*** at Wed Mar  4 23:03:25 2020

   => Loading Basis Set <=

    Name: STO-3G
    Role: ORBITAL
    Keyword: BASIS
    atoms 1   entry N          line    71 file /Users/teague/anaconda3/envs/gen_env/share/psi4/basis/sto-3g.gbs 
    atoms 2-4 entry H          line    19 file /Users/teague/anaconda3/envs/gen_env/share/psi4/basis/sto-3g.gbs 


         ---------------------------------------------------------
                                   SCF
               by Justin Turney, Rob Parrish, Andy Simmonett
                          and Daniel G. A. Smith
                              RHF Reference
                        1 Threads,   7629 MiB Core
         ---------------------------------------------------------

  ==> Geometry <==

    Molecular point group: c1
    Full point group: C1

    Geometry (in Angstrom), charge = 0, multiplicity = 1:

       Center              X                  Y                   Z               Mass       
    ------------   -----------------  -----------------  -----------------  -----------------
         N            0.005960572524     0.046702003190     0.052727686237    14.003074004430
         H           -0.878439427476    -0.460297996810     0.068527686237     1.007825032230
         H            0.734460572524    -0.666497996810     0.068527686237     1.007825032230
         H            0.061160572524     0.477902003190    -0.869672313763     1.007825032230

  Running in c1 symmetry.

  Rotational constants: A =      9.76756  B =      9.76481  C =      6.32753 [cm^-1]
  Rotational constants: A = 292824.12525  B = 292741.70207  C = 189694.69637 [MHz]
  Nuclear repulsion =   11.875289621125146

  Charge       = 0
  Multiplicity = 1
  Electrons    = 10
  Nalpha       = 5
  Nbeta        = 5

  ==> Algorithm <==

  SCF Algorithm Type is PK.
  DIIS enabled.
  MOM disabled.
  Fractional occupation disabled.
  Guess Type is SAD.
  Energy threshold   = 1.00e-06
  Density threshold  = 1.00e-06
  Integral threshold = 0.00e+00

  ==> Primary Basis <==

  Basis Set: STO-3G
    Blend: STO-3G
    Number of shells: 6
    Number of basis function: 8
    Number of Cartesian functions: 8
    Spherical Harmonics?: true
    Max angular momentum: 1

  ==> Pre-Iterations <==

   -------------------------------------------------------
    Irrep   Nso     Nmo     Nalpha   Nbeta   Ndocc  Nsocc
   -------------------------------------------------------
     A          8       8       0       0       0       0
   -------------------------------------------------------
    Total       8       8       5       5       5       0
   -------------------------------------------------------

  ==> Integral Setup <==

  Using in-core PK algorithm.
   Calculation information:
      Number of atoms:                   4
      Number of AO shells:               6
      Number of primitives:             18
      Number of atomic orbitals:         8
      Number of basis functions:         8

      Integral cutoff                 1.00e-12
      Number of threads:                 1

  Performing in-core PK
  Using 1332 doubles for integral storage.
  We computed 231 shell quartets total.
  Whereas there are 231 unique shell quartets.

  ==> DiskJK: Disk-Based J/K Matrices <==

    J tasked:                  Yes
    K tasked:                  Yes
    wK tasked:                  No
    Memory [MiB]:             5722
    Schwarz Cutoff:          1E-12

    OpenMP threads:              1

  Minimum eigenvalue in the overlap matrix is 2.7150517194E-01.
  Using Symmetric Orthogonalization.

  SCF Guess: Superposition of Atomic Densities via on-the-fly atomic UHF.

  ==> Iterations <==

                        Total Energy        Delta E     RMS |[F,P]|

   @RHF iter SAD:   -54.49784520995788   -5.44978e+01   0.00000e+00 
   @RHF iter   1:   -55.43249405051026   -9.34649e-01   2.15040e-02 DIIS
   @RHF iter   2:   -55.45408857878385   -2.15945e-02   4.44492e-03 DIIS
   @RHF iter   3:   -55.45483459283108   -7.46014e-04   8.97298e-04 DIIS
   @RHF iter   4:   -55.45487866393984   -4.40711e-05   7.64080e-06 DIIS
   @RHF iter   5:   -55.45487866950333   -5.56349e-09   2.80394e-06 DIIS
   @RHF iter   6:   -55.45487867034225   -8.38924e-10   3.53050e-08 DIIS
  Energy and wave function converged.


  ==> Post-Iterations <==

    Orbital Energies [Eh]
    ---------------------

    Doubly Occupied:                                                      

       1A    -15.307671     2A     -1.089212     3A     -0.568706  
       4A     -0.568579     5A     -0.354687  

    Virtual:                                                              

       6A      0.634730     7A      0.719372     8A      0.719598  

    Final Occupation by Irrep:
              A 
    DOCC [     5 ]

  @RHF Final Energy:   -55.45487867034225

   => Energetics <=

    Nuclear Repulsion Energy =             11.8752896211251464
    One-Electron Energy =                 -98.8826280401881519
    Two-Electron Energy =                  31.5524597487207501
    Total Energy =                        -55.4548786703422536

Computation Completed


Properties will be evaluated at   0.000000,   0.000000,   0.000000 [a0]

Properties computed using the SCF density matrix

  Nuclear Dipole Moment: [e a0]
     X:    -0.0777      Y:    -0.6085      Z:    -0.6870

  Electronic Dipole Moment: [e a0]
     X:     0.0171      Y:     0.1343      Z:     0.1520

  Dipole Moment: [e a0]
     X:    -0.0606      Y:    -0.4741      Z:    -0.5350     Total:     0.7174

  Dipole Moment: [D]
     X:    -0.1540      Y:    -1.2051      Z:    -1.3598     Total:     1.8235


*** tstop() called on trurls-machine at Wed Mar  4 23:03:25 2020
Module time:
	user time   =       0.18 seconds =       0.00 minutes
	system time =       0.02 seconds =       0.00 minutes
	total time  =          0 seconds =       0.00 minutes
Total time:
	user time   =       0.43 seconds =       0.01 minutes
	system time =       0.04 seconds =       0.00 minutes
	total time  =          1 seconds =       0.02 minutes

*** tstart() called on trurls-machine
*** at Wed Mar  4 23:03:25 2020


  //>>>>>>>>>>>>>>>>>>>>>>>>>>>>>>>>>>>//
  //               DFMP2               //
  //<<<<<<<<<<<<<<<<<<<<<<<<<<<<<<<<<<<//

   => Loading Basis Set <=

    Name: (STO-3G AUX)
    Role: RIFIT
    Keyword: DF_BASIS_MP2
    atoms 1   entry N          line   338 file /Users/teague/anaconda3/envs/gen_env/share/psi4/basis/def2-qzvpp-ri.gbs 
    atoms 2-4 entry H          line    24 file /Users/teague/anaconda3/envs/gen_env/share/psi4/basis/def2-qzvpp-ri.gbs 

	 --------------------------------------------------------
	                          DF-MP2                         
	      2nd-Order Density-Fitted Moller-Plesset Theory     
	              RMP2 Wavefunction,   1 Threads             
	                                                         
	        Rob Parrish, Justin Turney, Andy Simmonett,      
	           Ed Hohenstein, and C. David Sherrill          
	 --------------------------------------------------------

   => Auxiliary Basis Set <=

  Basis Set: (STO-3G AUX)
    Blend: DEF2-QZVPP-RI
    Number of shells: 81
    Number of basis function: 309
    Number of Cartesian functions: 404
    Spherical Harmonics?: true
    Max angular momentum: 5

	 --------------------------------------------------------
	                 NBF =     8, NAUX =   309
	 --------------------------------------------------------
	   CLASS    FOCC     OCC    AOCC    AVIR     VIR    FVIR
	   PAIRS       0       5       5       3       3       0
	 --------------------------------------------------------

	-----------------------------------------------------------
	 ==================> DF-MP2 Energies <==================== 
	-----------------------------------------------------------
	 Reference Energy          =     -55.4548786703422536 [Eh]
	 Singles Energy            =      -0.0000000000000000 [Eh]
	 Same-Spin Energy          =      -0.0030738281619136 [Eh]
	 Opposite-Spin Energy      =      -0.0451395955727072 [Eh]
	 Correlation Energy        =      -0.0482134237346208 [Eh]
	 Total Energy              =     -55.5030920940768766 [Eh]
	-----------------------------------------------------------
	 ================> DF-SCS-MP2 Energies <================== 
	-----------------------------------------------------------
	 SCS Same-Spin Scale       =       0.3333333333333333 [-]
	 SCS Opposite-Spin Scale   =       1.2000000000000000 [-]
	 SCS Same-Spin Energy      =      -0.0010246093873045 [Eh]
	 SCS Opposite-Spin Energy  =      -0.0541675146872486 [Eh]
	 SCS Correlation Energy    =      -0.0551921240745532 [Eh]
	 SCS Total Energy          =     -55.5100707944168050 [Eh]
	-----------------------------------------------------------


*** tstop() called on trurls-machine at Wed Mar  4 23:03:25 2020
Module time:
	user time   =       0.11 seconds =       0.00 minutes
	system time =       0.00 seconds =       0.00 minutes
	total time  =          0 seconds =       0.00 minutes
Total time:
	user time   =       0.54 seconds =       0.01 minutes
	system time =       0.04 seconds =       0.00 minutes
	total time  =          1 seconds =       0.02 minutes

*** tstart() called on trurls-machine
*** at Wed Mar  4 23:03:25 2020

   => Loading Basis Set <=

    Name: STO-3G
    Role: ORBITAL
    Keyword: BASIS
    atoms 1   entry N          line    71 file /Users/teague/anaconda3/envs/gen_env/share/psi4/basis/sto-3g.gbs 
    atoms 2-4 entry H          line    19 file /Users/teague/anaconda3/envs/gen_env/share/psi4/basis/sto-3g.gbs 


         ---------------------------------------------------------
                                   SCF
               by Justin Turney, Rob Parrish, Andy Simmonett
                          and Daniel G. A. Smith
                              RHF Reference
                        1 Threads,   7629 MiB Core
         ---------------------------------------------------------

  ==> Geometry <==

    Molecular point group: c1
    Full point group: C1

    Geometry (in Angstrom), charge = 0, multiplicity = 1:

       Center              X                  Y                   Z               Mass       
    ------------   -----------------  -----------------  -----------------  -----------------
         N            0.005960572524     0.046702003190     0.052727686237    14.003074004430
         H           -0.878439427476    -0.460297996810     0.068527686237     1.007825032230
         H            0.734460572524    -0.666497996810     0.068527686237     1.007825032230
         H            0.061160572524     0.477902003190    -0.869672313763     1.007825032230

  Running in c1 symmetry.

  Rotational constants: A =      9.76756  B =      9.76481  C =      6.32753 [cm^-1]
  Rotational constants: A = 292824.12525  B = 292741.70207  C = 189694.69637 [MHz]
  Nuclear repulsion =   11.875289621125146

  Charge       = 0
  Multiplicity = 1
  Electrons    = 10
  Nalpha       = 5
  Nbeta        = 5

  ==> Algorithm <==

  SCF Algorithm Type is PK.
  DIIS enabled.
  MOM disabled.
  Fractional occupation disabled.
  Guess Type is SAD.
  Energy threshold   = 1.00e-06
  Density threshold  = 1.00e-06
  Integral threshold = 0.00e+00

  ==> Primary Basis <==

  Basis Set: STO-3G
    Blend: STO-3G
    Number of shells: 6
    Number of basis function: 8
    Number of Cartesian functions: 8
    Spherical Harmonics?: true
    Max angular momentum: 1

  ==> Pre-Iterations <==

   -------------------------------------------------------
    Irrep   Nso     Nmo     Nalpha   Nbeta   Ndocc  Nsocc
   -------------------------------------------------------
     A          8       8       0       0       0       0
   -------------------------------------------------------
    Total       8       8       5       5       5       0
   -------------------------------------------------------

  ==> Integral Setup <==

  Using in-core PK algorithm.
   Calculation information:
      Number of atoms:                   4
      Number of AO shells:               6
      Number of primitives:             18
      Number of atomic orbitals:         8
      Number of basis functions:         8

      Integral cutoff                 1.00e-12
      Number of threads:                 1

  Performing in-core PK
  Using 1332 doubles for integral storage.
  We computed 231 shell quartets total.
  Whereas there are 231 unique shell quartets.

  ==> DiskJK: Disk-Based J/K Matrices <==

    J tasked:                  Yes
    K tasked:                  Yes
    wK tasked:                  No
    Memory [MiB]:             5722
    Schwarz Cutoff:          1E-12

    OpenMP threads:              1

  Minimum eigenvalue in the overlap matrix is 2.7150517194E-01.
  Using Symmetric Orthogonalization.

  SCF Guess: Superposition of Atomic Densities via on-the-fly atomic UHF.

  ==> Iterations <==

                        Total Energy        Delta E     RMS |[F,P]|

   @RHF iter SAD:   -54.49784520995787   -5.44978e+01   0.00000e+00 
   @RHF iter   1:   -55.43249405051027   -9.34649e-01   2.15040e-02 DIIS
   @RHF iter   2:   -55.45408857878387   -2.15945e-02   4.44492e-03 DIIS
   @RHF iter   3:   -55.45483459283113   -7.46014e-04   8.97298e-04 DIIS
   @RHF iter   4:   -55.45487866393979   -4.40711e-05   7.64080e-06 DIIS
   @RHF iter   5:   -55.45487866950335   -5.56356e-09   2.80394e-06 DIIS
   @RHF iter   6:   -55.45487867034224   -8.38888e-10   3.53050e-08 DIIS
  Energy and wave function converged.


  ==> Post-Iterations <==

    Orbital Energies [Eh]
    ---------------------

    Doubly Occupied:                                                      

       1A    -15.307671     2A     -1.089212     3A     -0.568706  
       4A     -0.568579     5A     -0.354687  

    Virtual:                                                              

       6A      0.634730     7A      0.719372     8A      0.719598  

    Final Occupation by Irrep:
              A 
    DOCC [     5 ]

  @RHF Final Energy:   -55.45487867034224

   => Energetics <=

    Nuclear Repulsion Energy =             11.8752896211251464
    One-Electron Energy =                 -98.8826280401881093
    Two-Electron Energy =                  31.5524597487207217
    Total Energy =                        -55.4548786703422394

Computation Completed


Properties will be evaluated at   0.000000,   0.000000,   0.000000 [a0]

Properties computed using the SCF density matrix

  Nuclear Dipole Moment: [e a0]
     X:    -0.0777      Y:    -0.6085      Z:    -0.6870

  Electronic Dipole Moment: [e a0]
     X:     0.0171      Y:     0.1343      Z:     0.1520

  Dipole Moment: [e a0]
     X:    -0.0606      Y:    -0.4741      Z:    -0.5350     Total:     0.7174

  Dipole Moment: [D]
     X:    -0.1540      Y:    -1.2051      Z:    -1.3598     Total:     1.8235


*** tstop() called on trurls-machine at Wed Mar  4 23:03:25 2020
Module time:
	user time   =       0.18 seconds =       0.00 minutes
	system time =       0.01 seconds =       0.00 minutes
	total time  =          0 seconds =       0.00 minutes
Total time:
	user time   =       0.75 seconds =       0.01 minutes
	system time =       0.05 seconds =       0.00 minutes
	total time  =          1 seconds =       0.02 minutes
 MINTS: Wrapper to libmints.
   by Justin Turney

   Calculation information:
      Number of threads:                 1
      Number of atoms:                   4
      Number of AO shells:               6
      Number of SO shells:               6
      Number of primitives:             18
      Number of atomic orbitals:         8
      Number of basis functions:         8

      Number of irreps:                  1
      Integral cutoff                 0.00e+00
      Number of functions per irrep: [   8 ]

 OEINTS: Overlap, kinetic, potential, dipole, and quadrupole integrals
         stored in file 35.

      Computing two-electron integrals...done
      Computed 612 non-zero two-electron integrals.
        Stored in file 33.


         ---------------------------------------------------------
                          Configuration Interaction
                            (a 'D E T C I' module)

                 C. David Sherrill, Daniel G. A. Smith, and
                              Matt L. Leininger
         ---------------------------------------------------------


   ==> Parameters <==

    EX LEVEL       =        2      H0 BLOCKSIZE  =     1000
    VAL EX LEVEL   =        0      H0 GUESS SIZE =     1000
    H0COUPLINGSIZE =        0      H0 COUPLING   =       NO
    MAXITER        =       24      NUM PRINT     =       20
    NUM ROOTS      =        1      ICORE         =        1
    PRINT LVL      =        1      FCI           =       NO
    R CONV         = 1.00e-06      MIXED         =      YES
    E CONV         = 1.00e-06      MIXED4        =      YES
    R4S            =       NO      REPL OTF      =       NO
    DIAG METHOD    =      SEM      FOLLOW ROOT   =        0
    PRECONDITIONER = DAVIDSON      UPDATE        = DAVIDSON
    S              =   0.0000      Ms0           =      YES
    GUESS VECTOR   =  H0BLOCK      OPENTYPE      =     NONE
    COLLAPSE SIZE  =        1      HD AVG        = EVANGELISTI
    MAX NUM VECS   =       25      REF SYM       =     AUTO
    IOPEN        =       NO

    EX ALLOW       =  1  1 
    STATE AVERAGE  =  0(1.00) 

   ==> CI Orbital and Space information <==

    RAS1 LVL      =        4      A RAS3 MAX    =        2
    RAS1 MIN      =        8      B RAS3 MAX    =        2
    A RAS1 LVL    =        4      RAS4 LVL      =        8
    A RAS1 MIN    =        3      A RAS4 MAX    =        0
    A RAS1 MAX    =        5      B RAS4 MAX    =        0
    B RAS1 LVL    =        4      RAS4 MAX      =        0
    B RAS1 MIN    =        3      A RAS34 MAX   =        2
    B RAS1 MAX    =        5      B RAS34 MAX   =        2
    RAS3 LVL      =        5      RAS34 MAX     =        2
    RAS3 MAX      =        2
   ------------------------------------
               Space    Total     A
   ------------------------------------
                 Nso        8     8
                 Nmo        8     8
               Ndocc        5     5
               Nsocc        0     0
   ------------------------------------
              CI Spaces
   ------------------------------------
        Dropped DOCC        0     0
                RAS1        5     5
                RAS2        0     0
                RAS3        3     3
                RAS4        0     0
      Active (total)        8     8
        Dropped UOCC        0     0
   ------------------------------------

   ==> Setting up CI strings <==

    There are 46 alpha and 46 beta strings
    The CI space requires 316 (3.16E+02) determinants and 6 blocks

   ==> Transforming CI integrals <==

	Presorting SO-basis two-electron integrals.
	Sorting File: SO Ints (nn|nn) nbuckets = 1
	Transforming the one-electron integrals and constructing Fock matrices
	Starting first half-transformation.
	Sorting half-transformed integrals.
	First half integral transformation complete.
	Starting second half-transformation.
	Two-electron integral transformation complete.

   ==> Starting CI iterations <==

    H0 Block Eigenvalue = -55.51973350

    Simultaneous Expansion Method (Block Davidson Method)
    Using 1 initial trial vectors

     Iter   Root       Total Energy       Delta E      C RMS

   @CI  0:     0    -55.519733498177   -6.7395E+01   2.5383E-13  
    Warning: Norm of correction (root 0) is < 1.0E-13
   @CI  1:     0    -55.519733498177   -1.4211E-14   1.3501E-12 c

   ==> Energetics <==

    SCF energy =          -55.454878670342239
    Total CI energy =     -55.519733498176748

   ==> CISD root 0 information <==

    CISD Root 0 energy =   -55.519733498176748

   The 20 most important determinants:

    *   1    0.983458  (    0,    0)  1AX 2AX 3AX 4AX 5AX 
    *   2   -0.071147  (    7,    7)  1AX 2AX 3AX 5AX 7AX 
    *   3   -0.071122  (   13,   13)  1AX 2AX 4AX 5AX 8AX 
    *   4   -0.033995  (    4,    4)  1AX 3AX 4AX 5AX 6AX 
    *   5   -0.032368  (    4,    7)  1AX 2AB 3AX 4AA 5AX 6AA 7AB 
    *   6   -0.032368  (    7,    4)  1AX 2AA 3AX 4AB 5AX 6AB 7AA 
    *   7    0.032364  (    4,   13)  1AX 2AB 3AA 4AX 5AX 6AA 8AB 
    *   8    0.032364  (   13,    4)  1AX 2AA 3AB 4AX 5AX 6AB 8AA 
    *   9    0.032182  (    7,   13)  1AX 2AX 3AA 4AB 5AX 7AA 8AB 
    *  10    0.032182  (   13,    7)  1AX 2AX 3AB 4AA 5AX 7AB 8AA 
    *  11   -0.031497  (    2,    2)  1AX 2AX 3AX 5AX 6AX 
    *  12   -0.031473  (    3,    3)  1AX 2AX 4AX 5AX 6AX 
    *  13   -0.027213  (    1,    4)  1AX 2AA 3AX 4AX 5AB 6AX 
    *  14   -0.027213  (    4,    1)  1AX 2AB 3AX 4AX 5AA 6AX 
    *  15   -0.024771  (   11,   11)  1AX 2AX 3AX 4AX 8AX 
    *  16   -0.024770  (    6,    6)  1AX 2AX 3AX 4AX 7AX 
    *  17   -0.023144  (    2,    9)  1AX 2AA 3AX 4AB 5AX 6AA 7AB 
    *  18   -0.023144  (    9,    2)  1AX 2AB 3AX 4AA 5AX 6AB 7AA 
    *  19    0.023136  (    3,   14)  1AX 2AA 3AB 4AX 5AX 6AA 8AB 
    *  20    0.023136  (   14,    3)  1AX 2AB 3AA 4AX 5AX 6AB 8AA 

		 "A good bug is a dead bug" 

			 - Starship Troopers

		 "I didn't write FORTRAN.  That's the problem."

			 - Edward Valeev

*** tstart() called on trurls-machine
*** at Wed Mar  4 23:03:25 2020

   => Loading Basis Set <=

    Name: STO-3G
    Role: ORBITAL
    Keyword: BASIS
    atoms 1   entry N          line    71 file /Users/teague/anaconda3/envs/gen_env/share/psi4/basis/sto-3g.gbs 
    atoms 2-4 entry H          line    19 file /Users/teague/anaconda3/envs/gen_env/share/psi4/basis/sto-3g.gbs 


         ---------------------------------------------------------
                                   SCF
               by Justin Turney, Rob Parrish, Andy Simmonett
                          and Daniel G. A. Smith
                              RHF Reference
                        1 Threads,   7629 MiB Core
         ---------------------------------------------------------

  ==> Geometry <==

    Molecular point group: c1
    Full point group: C1

    Geometry (in Angstrom), charge = 0, multiplicity = 1:

       Center              X                  Y                   Z               Mass       
    ------------   -----------------  -----------------  -----------------  -----------------
         N            0.005960572524     0.046702003190     0.052727686237    14.003074004430
         H           -0.878439427476    -0.460297996810     0.068527686237     1.007825032230
         H            0.734460572524    -0.666497996810     0.068527686237     1.007825032230
         H            0.061160572524     0.477902003190    -0.869672313763     1.007825032230

  Running in c1 symmetry.

  Rotational constants: A =      9.76756  B =      9.76481  C =      6.32753 [cm^-1]
  Rotational constants: A = 292824.12525  B = 292741.70207  C = 189694.69637 [MHz]
  Nuclear repulsion =   11.875289621125146

  Charge       = 0
  Multiplicity = 1
  Electrons    = 10
  Nalpha       = 5
  Nbeta        = 5

  ==> Algorithm <==

  SCF Algorithm Type is PK.
  DIIS enabled.
  MOM disabled.
  Fractional occupation disabled.
  Guess Type is SAD.
  Energy threshold   = 1.00e-06
  Density threshold  = 1.00e-06
  Integral threshold = 0.00e+00

  ==> Primary Basis <==

  Basis Set: STO-3G
    Blend: STO-3G
    Number of shells: 6
    Number of basis function: 8
    Number of Cartesian functions: 8
    Spherical Harmonics?: true
    Max angular momentum: 1

  ==> Pre-Iterations <==

   -------------------------------------------------------
    Irrep   Nso     Nmo     Nalpha   Nbeta   Ndocc  Nsocc
   -------------------------------------------------------
     A          8       8       0       0       0       0
   -------------------------------------------------------
    Total       8       8       5       5       5       0
   -------------------------------------------------------

  ==> Integral Setup <==

  Using in-core PK algorithm.
   Calculation information:
      Number of atoms:                   4
      Number of AO shells:               6
      Number of primitives:             18
      Number of atomic orbitals:         8
      Number of basis functions:         8

      Integral cutoff                 1.00e-12
      Number of threads:                 1

  Performing in-core PK
  Using 1332 doubles for integral storage.
  We computed 231 shell quartets total.
  Whereas there are 231 unique shell quartets.

  ==> DiskJK: Disk-Based J/K Matrices <==

    J tasked:                  Yes
    K tasked:                  Yes
    wK tasked:                  No
    Memory [MiB]:             5722
    Schwarz Cutoff:          1E-12

    OpenMP threads:              1

  Minimum eigenvalue in the overlap matrix is 2.7150517194E-01.
  Using Symmetric Orthogonalization.

  SCF Guess: Superposition of Atomic Densities via on-the-fly atomic UHF.

  ==> Iterations <==

                        Total Energy        Delta E     RMS |[F,P]|

   @RHF iter SAD:   -54.49784520995787   -5.44978e+01   0.00000e+00 
   @RHF iter   1:   -55.43249405051028   -9.34649e-01   2.15040e-02 DIIS
   @RHF iter   2:   -55.45408857878388   -2.15945e-02   4.44492e-03 DIIS
   @RHF iter   3:   -55.45483459283112   -7.46014e-04   8.97298e-04 DIIS
   @RHF iter   4:   -55.45487866393981   -4.40711e-05   7.64080e-06 DIIS
   @RHF iter   5:   -55.45487866950339   -5.56358e-09   2.80394e-06 DIIS
   @RHF iter   6:   -55.45487867034230   -8.38909e-10   3.53050e-08 DIIS
  Energy and wave function converged.


  ==> Post-Iterations <==

    Orbital Energies [Eh]
    ---------------------

    Doubly Occupied:                                                      

       1A    -15.307671     2A     -1.089212     3A     -0.568706  
       4A     -0.568579     5A     -0.354687  

    Virtual:                                                              

       6A      0.634730     7A      0.719372     8A      0.719598  

    Final Occupation by Irrep:
              A 
    DOCC [     5 ]

  @RHF Final Energy:   -55.45487867034230

   => Energetics <=

    Nuclear Repulsion Energy =             11.8752896211251464
    One-Electron Energy =                 -98.8826280401882229
    Two-Electron Energy =                  31.5524597487207785
    Total Energy =                        -55.4548786703422962

Computation Completed


Properties will be evaluated at   0.000000,   0.000000,   0.000000 [a0]

Properties computed using the SCF density matrix

  Nuclear Dipole Moment: [e a0]
     X:    -0.0777      Y:    -0.6085      Z:    -0.6870

  Electronic Dipole Moment: [e a0]
     X:     0.0171      Y:     0.1343      Z:     0.1520

  Dipole Moment: [e a0]
     X:    -0.0606      Y:    -0.4741      Z:    -0.5350     Total:     0.7174

  Dipole Moment: [D]
     X:    -0.1540      Y:    -1.2051      Z:    -1.3598     Total:     1.8235


*** tstop() called on trurls-machine at Wed Mar  4 23:03:25 2020
Module time:
	user time   =       0.19 seconds =       0.00 minutes
	system time =       0.01 seconds =       0.00 minutes
	total time  =          0 seconds =       0.00 minutes
Total time:
	user time   =       1.00 seconds =       0.02 minutes
	system time =       0.08 seconds =       0.00 minutes
	total time  =          1 seconds =       0.02 minutes
 MINTS: Wrapper to libmints.
   by Justin Turney

   Calculation information:
      Number of threads:                 1
      Number of atoms:                   4
      Number of AO shells:               6
      Number of SO shells:               6
      Number of primitives:             18
      Number of atomic orbitals:         8
      Number of basis functions:         8

      Number of irreps:                  1
      Integral cutoff                 0.00e+00
      Number of functions per irrep: [   8 ]

 OEINTS: Overlap, kinetic, potential, dipole, and quadrupole integrals
         stored in file 35.

      Computing two-electron integrals...done
      Computed 612 non-zero two-electron integrals.
        Stored in file 33.


         ---------------------------------------------------------
                          Configuration Interaction
                            (a 'D E T C I' module)

                 C. David Sherrill, Daniel G. A. Smith, and
                              Matt L. Leininger
         ---------------------------------------------------------


   ==> Parameters <==

    EX LEVEL       =       10      H0 BLOCKSIZE  =     1000
    VAL EX LEVEL   =        0      H0 GUESS SIZE =     1000
    H0COUPLINGSIZE =        0      H0 COUPLING   =       NO
    MAXITER        =       24      NUM PRINT     =       20
    NUM ROOTS      =        1      ICORE         =        1
    PRINT LVL      =        1      FCI           =      YES
    R CONV         = 1.00e-06      MIXED         =      YES
    E CONV         = 1.00e-06      MIXED4        =      YES
    R4S            =       NO      REPL OTF      =       NO
    DIAG METHOD    =      SEM      FOLLOW ROOT   =        0
    PRECONDITIONER = DAVIDSON      UPDATE        = DAVIDSON
    S              =   0.0000      Ms0           =      YES
    GUESS VECTOR   =  H0BLOCK      OPENTYPE      =     NONE
    COLLAPSE SIZE  =        1      HD AVG        = EVANGELISTI
    MAX NUM VECS   =       25      REF SYM       =     AUTO
    IOPEN        =       NO

    EX ALLOW       =  1  1  1  1  1  1  1  1  1  1 
    STATE AVERAGE  =  0(1.00) 

   ==> CI Orbital and Space information <==

   ------------------------------------
               Space    Total     A
   ------------------------------------
                 Nso        8     8
                 Nmo        8     8
               Ndocc        5     5
               Nsocc        0     0
   ------------------------------------
              CI Spaces
   ------------------------------------
        Dropped DOCC        0     0
              Active        8     8
        Dropped UOCC        0     0
   ------------------------------------

   ==> Setting up CI strings <==

    There are 56 alpha and 56 beta strings
    The CI space requires 3136 (3.14E+03) determinants and 1 blocks

   ==> Transforming CI integrals <==

	Presorting SO-basis two-electron integrals.
	Sorting File: SO Ints (nn|nn) nbuckets = 1
	Transforming the one-electron integrals and constructing Fock matrices
	Starting first half-transformation.
	Sorting half-transformed integrals.
	First half integral transformation complete.
	Starting second half-transformation.
	Two-electron integral transformation complete.

   ==> Starting CI iterations <==

    H0 Block Eigenvalue = -55.52088246

    Simultaneous Expansion Method (Block Davidson Method)
    Using 1 initial trial vectors

     Iter   Root       Total Energy       Delta E      C RMS

   @CI  0:     0    -55.520882461288   -6.7396E+01   7.4352E-02  
   @CI  1:     0    -55.521404867715   -5.2241E-04   1.5486E-02  
   @CI  2:     0    -55.521423520988   -1.8653E-05   2.6726E-03  
   @CI  3:     0    -55.521424940847   -1.4199E-06   1.3372E-03  
   @CI  4:     0    -55.521425119228   -1.7838E-07   3.4804E-04  
   @CI  5:     0    -55.521425132194   -1.2966E-08   8.7729E-05  
   @CI  6:     0    -55.521425133386   -1.1917E-09   2.9225E-05  
   @CI  7:     0    -55.521425133470   -8.4228E-11   8.2612E-06  
   @CI  8:     0    -55.521425133476   -6.1959E-12   1.5232E-06  
    Warning: Norm of correction (root 0) is < 1.0E-13
   @CI  9:     0    -55.521425133477   -2.8422E-13   3.9348E-07 c

   ==> Energetics <==

    SCF energy =          -55.454878670342296
    Total CI energy =     -55.521425133476782

   ==> FCI root 0 information <==

    FCI Root 0 energy =   -55.521425133476782

   The 20 most important determinants:

    *   1   -0.982345  (    0,    0)  1AX 2AX 3AX 4AX 5AX 
    *   2    0.072861  (    7,    7)  1AX 2AX 3AX 5AX 7AX 
    *   3    0.072835  (   23,   23)  1AX 2AX 4AX 5AX 8AX 
    *   4    0.034530  (    4,    4)  1AX 3AX 4AX 5AX 6AX 
    *   5    0.033137  (    4,    7)  1AX 2AB 3AX 4AA 5AX 6AA 7AB 
    *   6    0.033137  (    7,    4)  1AX 2AA 3AX 4AB 5AX 6AB 7AA 
    *   7   -0.033132  (    4,   23)  1AX 2AB 3AA 4AX 5AX 6AA 8AB 
    *   8   -0.033132  (   23,    4)  1AX 2AA 3AB 4AX 5AX 6AB 8AA 
    *   9   -0.033023  (    7,   23)  1AX 2AX 3AA 4AB 5AX 7AA 8AB 
    *  10   -0.033023  (   23,    7)  1AX 2AX 3AB 4AA 5AX 7AB 8AA 
    *  11    0.032292  (    2,    2)  1AX 2AX 3AX 5AX 6AX 
    *  12    0.032267  (    3,    3)  1AX 2AX 4AX 5AX 6AX 
    *  13    0.028234  (    1,    4)  1AX 2AA 3AX 4AX 5AB 6AX 
    *  14    0.028234  (    4,    1)  1AX 2AB 3AX 4AX 5AA 6AX 
    *  15    0.025539  (   21,   21)  1AX 2AX 3AX 4AX 8AX 
    *  16    0.025538  (    6,    6)  1AX 2AX 3AX 4AX 7AX 
    *  17    0.023635  (    2,    9)  1AX 2AA 3AX 4AB 5AX 6AA 7AB 
    *  18    0.023635  (    9,    2)  1AX 2AB 3AX 4AA 5AX 6AB 7AA 
    *  19   -0.023626  (    3,   24)  1AX 2AA 3AB 4AX 5AX 6AA 8AB 
    *  20   -0.023626  (   24,    3)  1AX 2AB 3AA 4AX 5AX 6AB 8AA 

		 "A good bug is a dead bug" 

			 - Starship Troopers

		 "I didn't write FORTRAN.  That's the problem."

			 - Edward Valeev

*** tstart() called on trurls-machine
*** at Wed Mar  4 23:03:26 2020

   => Loading Basis Set <=

    Name: STO-3G
    Role: ORBITAL
    Keyword: BASIS
    atoms 1   entry N          line    71 file /Users/teague/anaconda3/envs/gen_env/share/psi4/basis/sto-3g.gbs 
    atoms 2-4 entry H          line    19 file /Users/teague/anaconda3/envs/gen_env/share/psi4/basis/sto-3g.gbs 


         ---------------------------------------------------------
                                   SCF
               by Justin Turney, Rob Parrish, Andy Simmonett
                          and Daniel G. A. Smith
                              RHF Reference
                        1 Threads,   7629 MiB Core
         ---------------------------------------------------------

  ==> Geometry <==

    Molecular point group: c1
    Full point group: C1

    Geometry (in Angstrom), charge = 0, multiplicity = 1:

       Center              X                  Y                   Z               Mass       
    ------------   -----------------  -----------------  -----------------  -----------------
         N            0.005960572524     0.046702003190     0.052727686237    14.003074004430
         H           -0.878439427476    -0.460297996810     0.068527686237     1.007825032230
         H            0.734460572524    -0.666497996810     0.068527686237     1.007825032230
         H            0.061160572524     0.477902003190    -0.869672313763     1.007825032230

  Running in c1 symmetry.

  Rotational constants: A =      9.76756  B =      9.76481  C =      6.32753 [cm^-1]
  Rotational constants: A = 292824.12525  B = 292741.70207  C = 189694.69637 [MHz]
  Nuclear repulsion =   11.875289621125146

  Charge       = 0
  Multiplicity = 1
  Electrons    = 10
  Nalpha       = 5
  Nbeta        = 5

  ==> Algorithm <==

  SCF Algorithm Type is PK.
  DIIS enabled.
  MOM disabled.
  Fractional occupation disabled.
  Guess Type is SAD.
  Energy threshold   = 1.00e-06
  Density threshold  = 1.00e-06
  Integral threshold = 0.00e+00

  ==> Primary Basis <==

  Basis Set: STO-3G
    Blend: STO-3G
    Number of shells: 6
    Number of basis function: 8
    Number of Cartesian functions: 8
    Spherical Harmonics?: true
    Max angular momentum: 1

  ==> Pre-Iterations <==

   -------------------------------------------------------
    Irrep   Nso     Nmo     Nalpha   Nbeta   Ndocc  Nsocc
   -------------------------------------------------------
     A          8       8       0       0       0       0
   -------------------------------------------------------
    Total       8       8       5       5       5       0
   -------------------------------------------------------

  ==> Integral Setup <==

  Using in-core PK algorithm.
   Calculation information:
      Number of atoms:                   4
      Number of AO shells:               6
      Number of primitives:             18
      Number of atomic orbitals:         8
      Number of basis functions:         8

      Integral cutoff                 1.00e-12
      Number of threads:                 1

  Performing in-core PK
  Using 1332 doubles for integral storage.
  We computed 231 shell quartets total.
  Whereas there are 231 unique shell quartets.

  ==> DiskJK: Disk-Based J/K Matrices <==

    J tasked:                  Yes
    K tasked:                  Yes
    wK tasked:                  No
    Memory [MiB]:             5722
    Schwarz Cutoff:          1E-12

    OpenMP threads:              1

  Minimum eigenvalue in the overlap matrix is 2.7150517194E-01.
  Using Symmetric Orthogonalization.

  SCF Guess: Superposition of Atomic Densities via on-the-fly atomic UHF.

  ==> Iterations <==

                        Total Energy        Delta E     RMS |[F,P]|

   @RHF iter SAD:   -54.49784520995789   -5.44978e+01   0.00000e+00 
   @RHF iter   1:   -55.43249405051029   -9.34649e-01   2.15040e-02 DIIS
   @RHF iter   2:   -55.45408857878390   -2.15945e-02   4.44492e-03 DIIS
   @RHF iter   3:   -55.45483459283113   -7.46014e-04   8.97298e-04 DIIS
   @RHF iter   4:   -55.45487866393984   -4.40711e-05   7.64080e-06 DIIS
   @RHF iter   5:   -55.45487866950336   -5.56352e-09   2.80394e-06 DIIS
   @RHF iter   6:   -55.45487867034229   -8.38931e-10   3.53050e-08 DIIS
  Energy and wave function converged.


  ==> Post-Iterations <==

    Orbital Energies [Eh]
    ---------------------

    Doubly Occupied:                                                      

       1A    -15.307671     2A     -1.089212     3A     -0.568706  
       4A     -0.568579     5A     -0.354687  

    Virtual:                                                              

       6A      0.634730     7A      0.719372     8A      0.719598  

    Final Occupation by Irrep:
              A 
    DOCC [     5 ]

  @RHF Final Energy:   -55.45487867034229

   => Energetics <=

    Nuclear Repulsion Energy =             11.8752896211251464
    One-Electron Energy =                 -98.8826280401881945
    Two-Electron Energy =                  31.5524597487207572
    Total Energy =                        -55.4548786703422891

Computation Completed


Properties will be evaluated at   0.000000,   0.000000,   0.000000 [a0]

Properties computed using the SCF density matrix

  Nuclear Dipole Moment: [e a0]
     X:    -0.0777      Y:    -0.6085      Z:    -0.6870

  Electronic Dipole Moment: [e a0]
     X:     0.0171      Y:     0.1343      Z:     0.1520

  Dipole Moment: [e a0]
     X:    -0.0606      Y:    -0.4741      Z:    -0.5350     Total:     0.7174

  Dipole Moment: [D]
     X:    -0.1540      Y:    -1.2051      Z:    -1.3598     Total:     1.8235


*** tstop() called on trurls-machine at Wed Mar  4 23:03:26 2020
Module time:
	user time   =       0.18 seconds =       0.00 minutes
	system time =       0.01 seconds =       0.00 minutes
	total time  =          0 seconds =       0.00 minutes
Total time:
	user time   =       1.56 seconds =       0.03 minutes
	system time =       0.12 seconds =       0.00 minutes
	total time  =          2 seconds =       0.03 minutes
 MINTS: Wrapper to libmints.
   by Justin Turney

   Calculation information:
      Number of threads:                 1
      Number of atoms:                   4
      Number of AO shells:               6
      Number of SO shells:               6
      Number of primitives:             18
      Number of atomic orbitals:         8
      Number of basis functions:         8

      Number of irreps:                  1
      Integral cutoff                 0.00e+00
      Number of functions per irrep: [   8 ]

 OEINTS: Overlap, kinetic, potential, dipole, and quadrupole integrals
         stored in file 35.

      Computing two-electron integrals...done
      Computed 612 non-zero two-electron integrals.
        Stored in file 33.


*** tstart() called on trurls-machine
*** at Wed Mar  4 23:03:26 2020


	Wfn Parameters:
	--------------------
	Wavefunction         = CCSD
	Number of irreps     = 1
	Number of MOs        = 8
	Number of active MOs = 8
	AO-Basis             = NONE
	Semicanonical        = false
	Reference            = RHF
	Print Level          = 1

	IRREP	# MOs	# FZDC	# DOCC	# SOCC	# VIRT	# FZVR
	-----	-----	------	------	------	------	------
	 A	   8	    0	    5	    0	    3	    0
	Transforming integrals...
	IWL integrals will be deleted.
	(OO|OO)...
	Presorting SO-basis two-electron integrals.
	Sorting File: SO Ints (nn|nn) nbuckets = 1
	Transforming the one-electron integrals and constructing Fock matrices
	Starting first half-transformation.
	Sorting half-transformed integrals.
	First half integral transformation complete.
	Starting second half-transformation.
	Two-electron integral transformation complete.
	(OO|OV)...
	Starting second half-transformation.
	Two-electron integral transformation complete.
	(OO|VV)...
	Starting second half-transformation.
	Two-electron integral transformation complete.
	(OV|OO)...
	Starting first half-transformation.
	Sorting half-transformed integrals.
	First half integral transformation complete.
	Starting second half-transformation.
	Two-electron integral transformation complete.
	(OV|OV)...
	Starting second half-transformation.
	Two-electron integral transformation complete.
	(OV|VV)...
	Starting second half-transformation.
	Two-electron integral transformation complete.
	(VV|OO)...
	Starting first half-transformation.
	Sorting half-transformed integrals.
	First half integral transformation complete.
	Starting second half-transformation.
	Two-electron integral transformation complete.
	(VV|OV)...
	Starting second half-transformation.
	Two-electron integral transformation complete.
	(VV|VV)...
	Starting second half-transformation.
	Two-electron integral transformation complete.
	Frozen core energy     =      0.00000000000000

	Size of irrep 0 of <ab|cd> integrals:      0.000 (MW) /      0.001 (MB)
	Total:                                     0.000 (MW) /      0.001 (MB)

	Size of irrep 0 of <ia|bc> integrals:      0.000 (MW) /      0.001 (MB)
	Total:                                     0.000 (MW) /      0.001 (MB)

	Size of irrep 0 of tijab amplitudes:       0.000 (MW) /      0.002 (MB)
	Total:                                     0.000 (MW) /      0.002 (MB)

	Nuclear Rep. energy          =     11.87528962112515
	SCF energy                   =    -55.45487867034229
	One-electron energy          =    -98.88262780098026
	Two-electron energy          =     31.55245950951273
	Reference energy             =    -55.45487867034238

*** tstop() called on trurls-machine at Wed Mar  4 23:03:26 2020
Module time:
	user time   =       0.01 seconds =       0.00 minutes
	system time =       0.03 seconds =       0.00 minutes
	total time  =          0 seconds =       0.00 minutes
Total time:
	user time   =       1.58 seconds =       0.03 minutes
	system time =       0.15 seconds =       0.00 minutes
	total time  =          2 seconds =       0.03 minutes
            **************************
            *                        *
            *        CCENERGY        *
            *                        *
            **************************

    Nuclear Rep. energy (wfn)     =   11.875289621125146
    SCF energy          (wfn)     =  -55.454878670342289
    Reference energy    (file100) =  -55.454878670342381

    Input parameters:
    -----------------
    Wave function   =     CCSD
    Reference wfn   =     RHF
    Brueckner       =     No
    Memory (Mbytes) =     8000.0
    Maxiter         =   1000000
    R_Convergence   =     1.0e-06
    E_Convergence   =     1.0e-06
    Restart         =     Yes
    DIIS            =     Yes
    AO Basis        =     NONE
    ABCD            =     NEW
    Cache Level     =     2
    Cache Type      =     LOW
    Print Level     =     1
    Num. of threads =     1
    # Amps to Print =     1000000
    Print MP2 Amps? =     No
    Analyze T2 Amps =     No
    Print Pair Ener =     No
    Local CC        =     No
    SCS-MP2         =     False
    SCSN-MP2        =     False
    SCS-CCSD        =     False

MP2 correlation energy -0.0482143182368620
                Solving CC Amplitude Equations
                ------------------------------
  Iter             Energy              RMS        T1Diag      D1Diag    New D1Diag    D2Diag
  ----     ---------------------    ---------   ----------  ----------  ----------   --------
     0        -0.048214318236862    0.000e+00    0.000000    0.000000    0.000000    0.076487
     1        -0.060413468768690    3.811e-02    0.001465    0.004083    0.004083    0.098285
     2        -0.066112764856009    1.365e-02    0.002756    0.008104    0.008104    0.109687
     3        -0.066313928009211    1.856e-03    0.003178    0.009581    0.009581    0.110376
     4        -0.066334294801705    5.246e-04    0.003347    0.010174    0.010174    0.110372
     5        -0.066327703795011    6.595e-05    0.003368    0.010244    0.010244    0.110345
     6        -0.066329144292122    1.695e-05    0.003373    0.010262    0.010262    0.110346
     7        -0.066328675498826    3.125e-06    0.003374    0.010264    0.010264    0.110345
     8        -0.066328686683898    4.802e-07    0.003374    0.010264    0.010264    0.110345

    Iterations converged.


    Largest TIA Amplitudes:
              4   0         0.0101603421
              3   1        -0.0020592944
              2   2        -0.0020577263
              1   0        -0.0014536857
              3   2        -0.0000424159
              2   1         0.0000423653
              0   0        -0.0000249431
              4   2        -0.0000027627
              4   1        -0.0000022064
              1   1         0.0000016998
              1   2         0.0000010922
              2   0        -0.0000009469
              3   0        -0.0000004951
              0   2         0.0000000122

    Largest TIjAb Amplitudes:
      3   3   1   1        -0.0740949109
      2   2   2   2        -0.0740682600
      1   1   0   0        -0.0353278079
      1   3   0   1        -0.0335824609
      3   1   1   0        -0.0335824609
      1   2   0   2        -0.0335776017
      2   1   2   0        -0.0335776017
      2   3   2   1        -0.0335428895
      3   2   1   2        -0.0335428895
      3   3   0   0        -0.0326073669
      2   2   0   0        -0.0325825856
      1   4   0   0         0.0283305100
      4   1   0   0         0.0283305100
      4   4   2   2        -0.0259507370
      4   4   1   1        -0.0259499339
      1   3   1   0        -0.0240088951
      3   1   0   1        -0.0240088951
      1   2   2   0        -0.0240006505
      2   1   0   2        -0.0240006505
      2   3   1   2        -0.0239974206
      3   2   2   1        -0.0239974206
      4   4   0   0        -0.0231656170
      1   1   1   1        -0.0166900226
      1   1   2   2        -0.0166888031
      2   2   1   1        -0.0165530165
      3   3   2   2        -0.0165313336
      3   4   1   0         0.0163805031
      4   3   0   1         0.0163805031
      2   4   2   0         0.0163670355
      4   2   0   2         0.0163670355
      3   3   0   1        -0.0150902806
      3   3   1   0        -0.0150902806
      2   2   0   1         0.0150768853
      2   2   1   0         0.0150768853
      2   3   0   2         0.0150604660
      3   2   2   0         0.0150604660
      2   3   2   0         0.0150527640
      3   2   0   2         0.0150527640
      3   4   0   1         0.0135598933
      4   3   1   0         0.0135598933
      2   4   0   2         0.0135535092
      4   2   2   0         0.0135535092
      2   4   1   2        -0.0110889220
      4   2   2   1        -0.0110889220
      2   4   2   1        -0.0110863442
      4   2   1   2        -0.0110863442
      3   4   2   2        -0.0110815851
      4   3   2   2        -0.0110815851
      3   4   1   1         0.0110801400
      4   3   1   1         0.0110801400
      2   3   0   1        -0.0076691532
      3   2   1   0        -0.0076691532
      2   3   1   0        -0.0076632958
      3   2   0   1        -0.0076632958
      3   3   0   2        -0.0076479833
      3   3   2   0        -0.0076479833
      2   2   0   2         0.0076325300
      2   2   2   0         0.0076325300
      2   4   2   2        -0.0059266623
      4   2   2   2        -0.0059266623
      2   4   1   1         0.0059204992
      4   2   1   1         0.0059204992
      3   4   1   2         0.0059150870
      4   3   2   1         0.0059150870
      3   4   2   1         0.0059146067
      4   3   1   2         0.0059146067
      1   4   2   2        -0.0052047949
      4   1   2   2        -0.0052047949
      1   4   1   1        -0.0052037422
      4   1   1   1        -0.0052037422
      1   2   1   2         0.0032189428
      2   1   2   1         0.0032189428
      1   2   2   1         0.0032160211
      2   1   1   2         0.0032160211
      1   3   2   2         0.0032098272
      3   1   2   2         0.0032098272
      1   3   1   1        -0.0031941595
      3   1   1   1        -0.0031941595
      1   2   2   2         0.0017342533
      2   1   2   2         0.0017342533
      1   2   1   1        -0.0017147343
      2   1   1   1        -0.0017147343
      1   3   1   2        -0.0017053333
      3   1   2   1        -0.0017053333
      1   3   2   1        -0.0017019376
      3   1   1   2        -0.0017019376
      2   3   2   2        -0.0011934859
      3   2   2   2        -0.0011934859
      2   3   1   1         0.0011878481
      3   2   1   1         0.0011878481
      3   3   1   2        -0.0011805718
      3   3   2   1        -0.0011805718
      2   2   1   2         0.0011797423
      2   2   2   1         0.0011797423
      0   0   0   0        -0.0010666494
      0   1   2   2         0.0008202240
      1   0   2   2         0.0008202240
      0   1   1   1         0.0008200712
      1   0   1   1         0.0008200712
      1   2   0   1         0.0006920946
      2   1   1   0         0.0006920946
      1   3   0   2        -0.0006909227
      3   1   2   0        -0.0006909227
      0   4   2   2         0.0005571829
      4   0   2   2         0.0005571829
      0   4   1   1         0.0005569855
      4   0   1   1         0.0005569855
      0   0   2   2        -0.0005351539
      0   0   1   1        -0.0005349606
      1   2   1   0         0.0004947972
      2   1   0   1         0.0004947972
      1   3   2   0        -0.0004938562
      3   1   0   2        -0.0004938562
      0   3   1   0         0.0004722369
      3   0   0   1         0.0004722369
      0   2   2   0         0.0004722196
      2   0   0   2         0.0004722196
      0   4   0   0        -0.0004439468
      4   0   0   0        -0.0004439468
      2   4   1   0        -0.0003398568
      4   2   0   1        -0.0003398568
      3   4   2   0         0.0003345104
      4   3   0   2         0.0003345104
      2   4   0   1        -0.0002820182
      4   2   1   0        -0.0002820182
      3   4   0   2         0.0002763253
      4   3   2   0         0.0002763253
      0   3   0   1        -0.0002572229
      3   0   1   0        -0.0002572229
      0   2   0   2        -0.0002571190
      2   0   2   0        -0.0002571190
      0   3   1   1        -0.0001880063
      3   0   1   1        -0.0001880063
      0   2   1   2         0.0001879026
      2   0   2   1         0.0001879026
      0   3   2   2         0.0001878324
      3   0   2   2         0.0001878324
      0   2   2   1         0.0001877956
      2   0   1   2         0.0001877956
      0   3   1   2        -0.0001004861
      3   0   2   1        -0.0001004861
      0   2   1   1        -0.0001003319
      2   0   1   1        -0.0001003319
      0   3   2   1        -0.0001002652
      3   0   1   2        -0.0001002652
      0   2   2   2         0.0001002530
      2   0   2   2         0.0001002530
      1   2   0   0        -0.0000211126
      2   1   0   0        -0.0000211126
      1   3   0   0        -0.0000174135
      3   1   0   0        -0.0000174135
      1   4   0   2        -0.0000124206
      4   1   2   0        -0.0000124206
      1   4   2   0        -0.0000118773
      4   1   0   2        -0.0000118773
      0   1   0   0        -0.0000118587
      1   0   0   0        -0.0000118587
      1   4   0   1        -0.0000115048
      4   1   1   0        -0.0000115048
      2   4   0   0         0.0000113042
      4   2   0   0         0.0000113042
      1   4   1   0        -0.0000104319
      4   1   0   1        -0.0000104319
      0   3   2   0         0.0000097669
      3   0   0   2         0.0000097669
      0   2   1   0        -0.0000096821
      2   0   0   1        -0.0000096821
      3   4   0   0         0.0000073831
      4   3   0   0         0.0000073831
      1   1   0   2         0.0000072728
      1   1   2   0         0.0000072728
      2   3   0   0         0.0000069375
      3   2   0   0         0.0000069375
      1   1   0   1         0.0000055194
      1   1   1   0         0.0000055194
      0   2   0   1         0.0000053314
      2   0   1   0         0.0000053314
      0   3   0   2        -0.0000052604
      3   0   2   0        -0.0000052604
      4   4   0   2        -0.0000022149
      4   4   2   0        -0.0000022149
      4   4   0   1        -0.0000016646
      4   4   1   0        -0.0000016646
      4   4   1   2         0.0000005256
      4   4   2   1         0.0000005256
      0   4   0   2         0.0000003650
      4   0   2   0         0.0000003650
      0   4   2   0         0.0000003599
      4   0   0   2         0.0000003599
      0   1   2   0         0.0000003264
      1   0   0   2         0.0000003264
      0   1   0   2         0.0000003242
      1   0   2   0         0.0000003242
      0   4   1   0         0.0000003126
      4   0   0   1         0.0000003126
      0   1   1   0         0.0000003115
      1   0   0   1         0.0000003115
      0   4   0   1         0.0000003047
      4   0   1   0         0.0000003047
      0   1   0   1         0.0000002895
      1   0   1   0         0.0000002895
      1   4   2   1         0.0000002091
      4   1   1   2         0.0000002091
      1   4   1   2         0.0000002090
      4   1   2   1         0.0000002090
      0   0   0   2         0.0000001940
      0   0   2   0         0.0000001940
      0   0   0   1         0.0000001305
      0   0   1   0         0.0000001305
      0   3   0   0         0.0000001020
      3   0   0   0         0.0000001020
      0   2   0   0         0.0000000955
      2   0   0   0         0.0000000955
      1   1   1   2        -0.0000000263
      1   1   2   1        -0.0000000263
      0   1   1   2        -0.0000000132
      1   0   2   1        -0.0000000132
      0   1   2   1        -0.0000000132
      1   0   1   2        -0.0000000132

    SCF energy       (wfn)                    =  -55.454878670342289
    Reference energy (file100)                =  -55.454878670342381

    Opposite-spin MP2 correlation energy      =   -0.045140528064075
    Same-spin MP2 correlation energy          =   -0.003073790172787
    MP2 correlation energy                    =   -0.048214318236862
      * MP2 total energy                      =  -55.503092988579240

    Opposite-spin CCSD correlation energy     =   -0.064064953475684
    Same-spin CCSD correlation energy         =   -0.002263733208214
    CCSD correlation energy                   =   -0.066328686683898
      * CCSD total energy                     =  -55.521207357026277


    Psi4 stopped on: Wednesday, 04 March 2020 11:03PM
    Psi4 wall time for execution: 0:00:02.69

*** Psi4 exiting successfully. Buy a developer a beer!
