
    -----------------------------------------------------------------------
          Psi4: An Open-Source Ab Initio Electronic Structure Package
                               Psi4 1.3.2 release

                         Git: Rev {HEAD} ecbda83 


    R. M. Parrish, L. A. Burns, D. G. A. Smith, A. C. Simmonett,
    A. E. DePrince III, E. G. Hohenstein, U. Bozkaya, A. Yu. Sokolov,
    R. Di Remigio, R. M. Richard, J. F. Gonthier, A. M. James,
    H. R. McAlexander, A. Kumar, M. Saitow, X. Wang, B. P. Pritchard,
    P. Verma, H. F. Schaefer III, K. Patkowski, R. A. King, E. F. Valeev,
    F. A. Evangelista, J. M. Turney, T. D. Crawford, and C. D. Sherrill,
    J. Chem. Theory Comput. 13(7) pp 3185--3197 (2017).
    (doi: 10.1021/acs.jctc.7b00174)


                         Additional Contributions by
    P. Kraus, H. Kruse, M. H. Lechner, M. C. Schieber, R. A. Shaw,
    A. Alenaizan, R. Galvelis, Z. L. Glick, S. Lehtola, and J. P. Misiewicz

    -----------------------------------------------------------------------


    Psi4 started on: Thursday, 05 March 2020 11:17AM

    Process ID: 89441
    Host:       trurls-machine
    PSIDATADIR: /Users/teague/anaconda3/envs/gen_env/share/psi4
    Memory:     500.0 MiB
    Threads:    1
    
  ==> Input File <==

--------------------------------------------------------------------------
"""This is a template for psi4 input format."""
import numpy
import sys

from openfermion.config import *
from openfermion.hamiltonians import MolecularData
from openfermion.ops import general_basis_change

from numpy import array

sys.path.append('/Users/teague/.local/lib/python3.7/site-packages/openfermionpsi4')
from _psi4_conversion_functions import *


# Set memory that job can use in megabytes.
memory 8000 mb

# Initialize molecular data.
_description = 'NIST'
if _description == 'None':
    _description = None
molecule = MolecularData([('H', (-0.1129, 0.3052, 0.0)), ('Be', (1.0381, -0.3601, 0.0)), ('H', (2.1898, -1.0243, 0.0))],
                         'sto-3g',
                         1,
                         0,
                         _description,
                          filename='molecule_data/BerylliumHydride_sto-3g_singlet_NIST')

# Set molecular geometry and symmetry.
molecule mol {
H -0.1129 0.3052 0.0
Be 1.0381 -0.3601 0.0
H 2.1898 -1.0243 0.0
symmetry c1
}
mol.set_multiplicity(1)
mol.set_molecular_charge(0)

# Set reference and guess.
if molecule.multiplicity == 1:
    set reference rhf
    set guess sad
else:
    set reference rohf
    set guess gwh

# Set global parameters of calculation.
set globals {
    basis sto-3g
    freeze_core false
    fail_on_maxiter True
    df_scf_guess false
    opdm true
    tpdm true
    soscf false
    scf_type pk
    maxiter 1e6
    num_amps_print 1e6
    r_convergence 1e-6
    d_convergence 1e-6
    e_convergence 1e-6
    ints_tolerance EQUALITY_TOLERANCE
    damping_percentage 0
}

# Run self-consistent field (SCF) calculation.
if True:
    try:
        hf_energy, hf_wavefunction = energy('scf', return_wfn=True)
        if False:
            print('Hartree-Fock energy for {} ({} electrons) is {}.'.format(
                molecule.name, molecule.n_electrons, hf_energy))
    except:
        if False:
            print('WARNING: SCF calculation failed.')
        else:
            raise
    finally:
        # Get orbitals and Fock matrix.
        molecule.hf_energy = hf_energy
        molecule.nuclear_repulsion = mol.nuclear_repulsion_energy()
        molecule.canonical_orbitals = numpy.asarray(hf_wavefunction.Ca())
        molecule.overlap_integrals = numpy.asarray(hf_wavefunction.S())
        molecule.n_orbitals = molecule.canonical_orbitals.shape[0]
        molecule.n_qubits = 2 * molecule.n_orbitals
        molecule.orbital_energies = numpy.asarray(hf_wavefunction.epsilon_a())
        molecule.fock_matrix = numpy.asarray(hf_wavefunction.Fa())

        # Get integrals using MintsHelper.
        mints = MintsHelper(hf_wavefunction.basisset())
        molecule.one_body_integrals = general_basis_change(
            numpy.asarray(mints.ao_kinetic()), molecule.canonical_orbitals, (1, 0))
        molecule.one_body_integrals += general_basis_change(
            numpy.asarray(mints.ao_potential()), molecule.canonical_orbitals, (1, 0))
        two_body_integrals = numpy.asarray(mints.ao_eri())
        two_body_integrals.reshape((molecule.n_orbitals, molecule.n_orbitals,
                                    molecule.n_orbitals, molecule.n_orbitals))
        two_body_integrals = numpy.einsum('psqr', two_body_integrals)
        two_body_integrals = general_basis_change(
            two_body_integrals, molecule.canonical_orbitals, (1, 1, 0, 0))
        molecule.two_body_integrals = two_body_integrals
        molecule.save()


# Perform MP2 energy calculation if there are at least two electrons.
if True:
    try:
        assert molecule.n_electrons > 1
        mp2_energy = energy('mp2')
        if False:
            print('MP2 energy for {} ({} electrons) is {}.'.format(
                molecule.name, molecule.n_electrons, mp2_energy))
    except:
        if False:
            print('WARNING: MP2 calculation failed.')
        else:
            raise
    else:
        molecule.mp2_energy = mp2_energy
        molecule.save()


# Perform configuration interaction singles and doubles (CISD) calculation.
if True:
    set qc_module detci
    try:
        cisd_energy, cisd_wavefunction = energy('cisd', return_wfn=True)
        if False:
            print('CISD energy for {} ({} electrons) is {}.'.format(
                molecule.name, molecule.n_electrons, cisd_energy))
    except:
        if False:
            print('WARNING: CISD calculation failed.')
        else:
            raise
    else:
        # For the functions below, "a" and "b" refer to "up and "down" spins.
        molecule.cisd_energy = cisd_energy

        # Get 1-RDM from CISD calculation.
        cisd_one_rdm_a = numpy.array(cisd_wavefunction.get_opdm(
            0, 0, 'A', True)).reshape(molecule.n_orbitals, molecule.n_orbitals)
        cisd_one_rdm_b = numpy.array(cisd_wavefunction.get_opdm(
            0, 0, 'B', True)).reshape(molecule.n_orbitals, molecule.n_orbitals)

        # Get 2-RDM from CISD calculation.
        cisd_two_rdm_aa = numpy.array(cisd_wavefunction.get_tpdm(
            'AA', False)).reshape(molecule.n_orbitals, molecule.n_orbitals,
                                  molecule.n_orbitals, molecule.n_orbitals)
        cisd_two_rdm_ab = numpy.array(cisd_wavefunction.get_tpdm(
            'AB', False)).reshape(molecule.n_orbitals, molecule.n_orbitals,
                                  molecule.n_orbitals, molecule.n_orbitals)
        cisd_two_rdm_bb = numpy.array(cisd_wavefunction.get_tpdm(
            'BB', False)).reshape(molecule.n_orbitals, molecule.n_orbitals,
                                  molecule.n_orbitals, molecule.n_orbitals)

        # Get overall RDMs.
        cisd_one_rdm, cisd_two_rdm = unpack_spatial_rdm(
            cisd_one_rdm_a, cisd_one_rdm_b, cisd_two_rdm_aa,
            cisd_two_rdm_ab, cisd_two_rdm_bb)

        # Store 1-RDM in molecule file, 2-RDM separately in other file.
        molecule.cisd_one_rdm = cisd_one_rdm
        molecule.cisd_two_rdm = cisd_two_rdm
        molecule.save()


# Perform exact diagonalization.
if True:
    set qc_module detci
    try:
        fci_energy, fci_wavefunction = energy('fci', return_wfn=True)
        if False:
            print('FCI energy for {} ({} electrons) is {}.'.format(
                molecule.name, molecule.n_electrons, fci_energy))
    except:
        if False:
            print('WARNING: FCI calculation failed.')
        else:
            raise
    finally:
        # For the functions below, "a" and "b" refer to "up and "down" spins.
        molecule.fci_energy = fci_energy

        # Get 1-RDM from FCI calculation.
        fci_one_rdm_a = numpy.array(fci_wavefunction.get_opdm(
            0, 0, 'A', True)).reshape(molecule.n_orbitals, molecule.n_orbitals)
        fci_one_rdm_b = numpy.array(fci_wavefunction.get_opdm(
            0, 0, 'B', True)).reshape(molecule.n_orbitals, molecule.n_orbitals)

        # Get 2-RDM from FCI calculation.
        fci_two_rdm_aa = numpy.array(fci_wavefunction.get_tpdm(
            'AA', False)).reshape(molecule.n_orbitals, molecule.n_orbitals,
                                  molecule.n_orbitals, molecule.n_orbitals)
        fci_two_rdm_ab = numpy.array(fci_wavefunction.get_tpdm(
            'AB', False)).reshape(molecule.n_orbitals, molecule.n_orbitals,
                                  molecule.n_orbitals, molecule.n_orbitals)
        fci_two_rdm_bb = numpy.array(fci_wavefunction.get_tpdm(
            'BB', False)).reshape(molecule.n_orbitals, molecule.n_orbitals,
                                  molecule.n_orbitals, molecule.n_orbitals)

        # Get overall RDMs.
        fci_one_rdm, fci_two_rdm = unpack_spatial_rdm(
            fci_one_rdm_a, fci_one_rdm_b,
            fci_two_rdm_aa, fci_two_rdm_ab, fci_two_rdm_bb)

        # Store 1-RDM in molecule file, 2-RDM separately in other file.
        molecule.fci_one_rdm = fci_one_rdm
        molecule.fci_two_rdm = fci_two_rdm
        molecule.save()


# Perform coupled cluster singles and doubles (CCSD) calculation.
if True:
    set qc_module ccenergy
    try:
        ccsd_energy = energy('ccsd')
        if False:
            print('CCSD energy for {} ({} electrons) is {}.'.format(
                molecule.name, molecule.n_electrons, ccsd_energy))
    except:
        if False:
            print('WARNING: CCSD calculation failed.')
        else:
            raise
    else:
        molecule.ccsd_energy = ccsd_energy

        # Merge CC amplitudes into molecule by parsing
        psi_filename = outfile_name()
        single_cc_amplitudes, double_cc_amplitudes = (
            parse_psi4_ccsd_amplitudes(
                2 * molecule.n_orbitals,
                molecule.get_n_alpha_electrons(),
                molecule.get_n_beta_electrons(),
                psi_filename))

        molecule.ccsd_single_amps = single_cc_amplitudes
        molecule.ccsd_double_amps = double_cc_amplitudes
        molecule.save()
--------------------------------------------------------------------------

  Memory set to   7.451 GiB by Python driver.

*** tstart() called on trurls-machine
*** at Thu Mar  5 11:17:08 2020

   => Loading Basis Set <=

    Name: STO-3G
    Role: ORBITAL
    Keyword: BASIS
    atoms 1, 3 entry H          line    19 file /Users/teague/anaconda3/envs/gen_env/share/psi4/basis/sto-3g.gbs 
    atoms 2    entry BE         line    41 file /Users/teague/anaconda3/envs/gen_env/share/psi4/basis/sto-3g.gbs 


         ---------------------------------------------------------
                                   SCF
               by Justin Turney, Rob Parrish, Andy Simmonett
                          and Daniel G. A. Smith
                              RHF Reference
                        1 Threads,   7629 MiB Core
         ---------------------------------------------------------

  ==> Geometry <==

    Molecular point group: c1
    Full point group: Cs

    Geometry (in Angstrom), charge = 0, multiplicity = 1:

       Center              X                  Y                   Z               Mass       
    ------------   -----------------  -----------------  -----------------  -----------------
         H           -1.151063972452     0.665199471862     0.000000000000     1.007825032230
         BE          -0.000063972452    -0.000100528138     0.000000000000     9.012183065000
         H            1.151636027548    -0.664300528138     0.000000000000     1.007825032230

  Running in c1 symmetry.

  Rotational constants: A = 24124610.89560  B =      4.73175  C =      4.73175 [cm^-1]
  Rotational constants: A = 723237639868.56262  B = 141854.39343  C = 141854.36561 [MHz]
  Nuclear repulsion =    3.383298949798030

  Charge       = 0
  Multiplicity = 1
  Electrons    = 6
  Nalpha       = 3
  Nbeta        = 3

  ==> Algorithm <==

  SCF Algorithm Type is PK.
  DIIS enabled.
  MOM disabled.
  Fractional occupation disabled.
  Guess Type is SAD.
  Energy threshold   = 1.00e-06
  Density threshold  = 1.00e-06
  Integral threshold = 0.00e+00

  ==> Primary Basis <==

  Basis Set: STO-3G
    Blend: STO-3G
    Number of shells: 5
    Number of basis function: 7
    Number of Cartesian functions: 7
    Spherical Harmonics?: true
    Max angular momentum: 1

  ==> Pre-Iterations <==

   -------------------------------------------------------
    Irrep   Nso     Nmo     Nalpha   Nbeta   Ndocc  Nsocc
   -------------------------------------------------------
     A          7       7       0       0       0       0
   -------------------------------------------------------
    Total       7       7       3       3       3       0
   -------------------------------------------------------

  ==> Integral Setup <==

  Using in-core PK algorithm.
   Calculation information:
      Number of atoms:                   3
      Number of AO shells:               5
      Number of primitives:             15
      Number of atomic orbitals:         7
      Number of basis functions:         7

      Integral cutoff                 1.00e-12
      Number of threads:                 1

  Performing in-core PK
  Using 812 doubles for integral storage.
  We computed 120 shell quartets total.
  Whereas there are 120 unique shell quartets.

  ==> DiskJK: Disk-Based J/K Matrices <==

    J tasked:                  Yes
    K tasked:                  Yes
    wK tasked:                  No
    Memory [MiB]:             5722
    Schwarz Cutoff:          1E-12

    OpenMP threads:              1

  Minimum eigenvalue in the overlap matrix is 2.3362326613E-01.
  Using Symmetric Orthogonalization.

  SCF Guess: Superposition of Atomic Densities via on-the-fly atomic UHF.

  ==> Iterations <==

                        Total Energy        Delta E     RMS |[F,P]|

   @RHF iter SAD:   -14.64057580011669   -1.46406e+01   0.00000e+00 
   @RHF iter   1:   -15.54879154844831   -9.08216e-01   1.56204e-02 DIIS
   @RHF iter   2:   -15.56004992447200   -1.12584e-02   1.27935e-03 DIIS
   @RHF iter   3:   -15.56013065003639   -8.07256e-05   5.78391e-05 DIIS
   @RHF iter   4:   -15.56013082780386   -1.77767e-07   6.79359e-06 DIIS
   @RHF iter   5:   -15.56013083038092   -2.57705e-09   4.85475e-08 DIIS
  Energy and wave function converged.


  ==> Post-Iterations <==

    Orbital Energies [Eh]
    ---------------------

    Doubly Occupied:                                                      

       1A     -4.519588     2A     -0.457794     3A     -0.421723  

    Virtual:                                                              

       4A      0.211811     5A      0.211811     6A      0.462121  
       7A      0.946486  

    Final Occupation by Irrep:
              A 
    DOCC [     3 ]

  @RHF Final Energy:   -15.56013083038092

   => Energetics <=

    Nuclear Repulsion Energy =              3.3832989497980304
    One-Electron Energy =                 -27.0886489187968920
    Two-Electron Energy =                   8.1452191386179447
    Total Energy =                        -15.5601308303809152

Computation Completed


Properties will be evaluated at   0.000000,   0.000000,   0.000000 [a0]

Properties computed using the SCF density matrix

  Nuclear Dipole Moment: [e a0]
     X:     0.0006      Y:     0.0009      Z:     0.0000

  Electronic Dipole Moment: [e a0]
     X:    -0.0010      Y:    -0.0017      Z:    -0.0000

  Dipole Moment: [e a0]
     X:    -0.0004      Y:    -0.0008      Z:    -0.0000     Total:     0.0009

  Dipole Moment: [D]
     X:    -0.0011      Y:    -0.0019      Z:    -0.0000     Total:     0.0022


*** tstop() called on trurls-machine at Thu Mar  5 11:17:09 2020
Module time:
	user time   =       0.18 seconds =       0.00 minutes
	system time =       0.01 seconds =       0.00 minutes
	total time  =          1 seconds =       0.02 minutes
Total time:
	user time   =       0.18 seconds =       0.00 minutes
	system time =       0.01 seconds =       0.00 minutes
	total time  =          1 seconds =       0.02 minutes

*** tstart() called on trurls-machine
*** at Thu Mar  5 11:17:09 2020

   => Loading Basis Set <=

    Name: STO-3G
    Role: ORBITAL
    Keyword: BASIS
    atoms 1, 3 entry H          line    19 file /Users/teague/anaconda3/envs/gen_env/share/psi4/basis/sto-3g.gbs 
    atoms 2    entry BE         line    41 file /Users/teague/anaconda3/envs/gen_env/share/psi4/basis/sto-3g.gbs 


         ---------------------------------------------------------
                                   SCF
               by Justin Turney, Rob Parrish, Andy Simmonett
                          and Daniel G. A. Smith
                              RHF Reference
                        1 Threads,   7629 MiB Core
         ---------------------------------------------------------

  ==> Geometry <==

    Molecular point group: c1
    Full point group: Cs

    Geometry (in Angstrom), charge = 0, multiplicity = 1:

       Center              X                  Y                   Z               Mass       
    ------------   -----------------  -----------------  -----------------  -----------------
         H           -1.151063972452     0.665199471862     0.000000000000     1.007825032230
         BE          -0.000063972452    -0.000100528138     0.000000000000     9.012183065000
         H            1.151636027548    -0.664300528138     0.000000000000     1.007825032230

  Running in c1 symmetry.

  Rotational constants: A = 24124610.89560  B =      4.73175  C =      4.73175 [cm^-1]
  Rotational constants: A = 723237639868.56262  B = 141854.39343  C = 141854.36561 [MHz]
  Nuclear repulsion =    3.383298949798030

  Charge       = 0
  Multiplicity = 1
  Electrons    = 6
  Nalpha       = 3
  Nbeta        = 3

  ==> Algorithm <==

  SCF Algorithm Type is PK.
  DIIS enabled.
  MOM disabled.
  Fractional occupation disabled.
  Guess Type is SAD.
  Energy threshold   = 1.00e-06
  Density threshold  = 1.00e-06
  Integral threshold = 0.00e+00

  ==> Primary Basis <==

  Basis Set: STO-3G
    Blend: STO-3G
    Number of shells: 5
    Number of basis function: 7
    Number of Cartesian functions: 7
    Spherical Harmonics?: true
    Max angular momentum: 1

  ==> Pre-Iterations <==

   -------------------------------------------------------
    Irrep   Nso     Nmo     Nalpha   Nbeta   Ndocc  Nsocc
   -------------------------------------------------------
     A          7       7       0       0       0       0
   -------------------------------------------------------
    Total       7       7       3       3       3       0
   -------------------------------------------------------

  ==> Integral Setup <==

  Using in-core PK algorithm.
   Calculation information:
      Number of atoms:                   3
      Number of AO shells:               5
      Number of primitives:             15
      Number of atomic orbitals:         7
      Number of basis functions:         7

      Integral cutoff                 1.00e-12
      Number of threads:                 1

  Performing in-core PK
  Using 812 doubles for integral storage.
  We computed 120 shell quartets total.
  Whereas there are 120 unique shell quartets.

  ==> DiskJK: Disk-Based J/K Matrices <==

    J tasked:                  Yes
    K tasked:                  Yes
    wK tasked:                  No
    Memory [MiB]:             5722
    Schwarz Cutoff:          1E-12

    OpenMP threads:              1

  Minimum eigenvalue in the overlap matrix is 2.3362326613E-01.
  Using Symmetric Orthogonalization.

  SCF Guess: Superposition of Atomic Densities via on-the-fly atomic UHF.

  ==> Iterations <==

                        Total Energy        Delta E     RMS |[F,P]|

   @RHF iter SAD:   -14.64057580011669   -1.46406e+01   0.00000e+00 
   @RHF iter   1:   -15.54879154844830   -9.08216e-01   1.56204e-02 DIIS
   @RHF iter   2:   -15.56004992447199   -1.12584e-02   1.27935e-03 DIIS
   @RHF iter   3:   -15.56013065003637   -8.07256e-05   5.78391e-05 DIIS
   @RHF iter   4:   -15.56013082780386   -1.77767e-07   6.79359e-06 DIIS
   @RHF iter   5:   -15.56013083038092   -2.57706e-09   4.85475e-08 DIIS
  Energy and wave function converged.


  ==> Post-Iterations <==

    Orbital Energies [Eh]
    ---------------------

    Doubly Occupied:                                                      

       1A     -4.519588     2A     -0.457794     3A     -0.421723  

    Virtual:                                                              

       4A      0.211811     5A      0.211811     6A      0.462121  
       7A      0.946486  

    Final Occupation by Irrep:
              A 
    DOCC [     3 ]

  @RHF Final Energy:   -15.56013083038092

   => Energetics <=

    Nuclear Repulsion Energy =              3.3832989497980304
    One-Electron Energy =                 -27.0886489187968813
    Two-Electron Energy =                   8.1452191386179358
    Total Energy =                        -15.5601308303809169

Computation Completed


Properties will be evaluated at   0.000000,   0.000000,   0.000000 [a0]

Properties computed using the SCF density matrix

  Nuclear Dipole Moment: [e a0]
     X:     0.0006      Y:     0.0009      Z:     0.0000

  Electronic Dipole Moment: [e a0]
     X:    -0.0010      Y:    -0.0017      Z:    -0.0000

  Dipole Moment: [e a0]
     X:    -0.0004      Y:    -0.0008      Z:    -0.0000     Total:     0.0009

  Dipole Moment: [D]
     X:    -0.0011      Y:    -0.0019      Z:    -0.0000     Total:     0.0022


*** tstop() called on trurls-machine at Thu Mar  5 11:17:09 2020
Module time:
	user time   =       0.16 seconds =       0.00 minutes
	system time =       0.01 seconds =       0.00 minutes
	total time  =          0 seconds =       0.00 minutes
Total time:
	user time   =       0.37 seconds =       0.01 minutes
	system time =       0.02 seconds =       0.00 minutes
	total time  =          1 seconds =       0.02 minutes

*** tstart() called on trurls-machine
*** at Thu Mar  5 11:17:09 2020


  //>>>>>>>>>>>>>>>>>>>>>>>>>>>>>>>>>>>//
  //               DFMP2               //
  //<<<<<<<<<<<<<<<<<<<<<<<<<<<<<<<<<<<//

   => Loading Basis Set <=

    Name: (STO-3G AUX)
    Role: RIFIT
    Keyword: DF_BASIS_MP2
    atoms 1, 3 entry H          line    24 file /Users/teague/anaconda3/envs/gen_env/share/psi4/basis/def2-qzvpp-ri.gbs 
    atoms 2    entry BE         line   146 file /Users/teague/anaconda3/envs/gen_env/share/psi4/basis/def2-qzvpp-ri.gbs 

	 --------------------------------------------------------
	                          DF-MP2                         
	      2nd-Order Density-Fitted Moller-Plesset Theory     
	              RMP2 Wavefunction,   1 Threads             
	                                                         
	        Rob Parrish, Justin Turney, Andy Simmonett,      
	           Ed Hohenstein, and C. David Sherrill          
	 --------------------------------------------------------

   => Auxiliary Basis Set <=

  Basis Set: (STO-3G AUX)
    Blend: DEF2-QZVPP-RI
    Number of shells: 59
    Number of basis function: 213
    Number of Cartesian functions: 272
    Spherical Harmonics?: true
    Max angular momentum: 4

	 --------------------------------------------------------
	                 NBF =     7, NAUX =   213
	 --------------------------------------------------------
	   CLASS    FOCC     OCC    AOCC    AVIR     VIR    FVIR
	   PAIRS       0       3       3       4       4       0
	 --------------------------------------------------------

	-----------------------------------------------------------
	 ==================> DF-MP2 Energies <==================== 
	-----------------------------------------------------------
	 Reference Energy          =     -15.5601308303809169 [Eh]
	 Singles Energy            =      -0.0000000000000000 [Eh]
	 Same-Spin Energy          =      -0.0001221456453019 [Eh]
	 Opposite-Spin Energy      =      -0.0231178791523111 [Eh]
	 Correlation Energy        =      -0.0232400247976130 [Eh]
	 Total Energy              =     -15.5833708551785293 [Eh]
	-----------------------------------------------------------
	 ================> DF-SCS-MP2 Energies <================== 
	-----------------------------------------------------------
	 SCS Same-Spin Scale       =       0.3333333333333333 [-]
	 SCS Opposite-Spin Scale   =       1.2000000000000000 [-]
	 SCS Same-Spin Energy      =      -0.0000407152151006 [Eh]
	 SCS Opposite-Spin Energy  =      -0.0277414549827733 [Eh]
	 SCS Correlation Energy    =      -0.0277821701978740 [Eh]
	 SCS Total Energy          =     -15.5879130005787907 [Eh]
	-----------------------------------------------------------


*** tstop() called on trurls-machine at Thu Mar  5 11:17:09 2020
Module time:
	user time   =       0.08 seconds =       0.00 minutes
	system time =       0.01 seconds =       0.00 minutes
	total time  =          0 seconds =       0.00 minutes
Total time:
	user time   =       0.45 seconds =       0.01 minutes
	system time =       0.03 seconds =       0.00 minutes
	total time  =          1 seconds =       0.02 minutes

*** tstart() called on trurls-machine
*** at Thu Mar  5 11:17:09 2020

   => Loading Basis Set <=

    Name: STO-3G
    Role: ORBITAL
    Keyword: BASIS
    atoms 1, 3 entry H          line    19 file /Users/teague/anaconda3/envs/gen_env/share/psi4/basis/sto-3g.gbs 
    atoms 2    entry BE         line    41 file /Users/teague/anaconda3/envs/gen_env/share/psi4/basis/sto-3g.gbs 


         ---------------------------------------------------------
                                   SCF
               by Justin Turney, Rob Parrish, Andy Simmonett
                          and Daniel G. A. Smith
                              RHF Reference
                        1 Threads,   7629 MiB Core
         ---------------------------------------------------------

  ==> Geometry <==

    Molecular point group: c1
    Full point group: Cs

    Geometry (in Angstrom), charge = 0, multiplicity = 1:

       Center              X                  Y                   Z               Mass       
    ------------   -----------------  -----------------  -----------------  -----------------
         H           -1.151063972452     0.665199471862     0.000000000000     1.007825032230
         BE          -0.000063972452    -0.000100528138     0.000000000000     9.012183065000
         H            1.151636027548    -0.664300528138     0.000000000000     1.007825032230

  Running in c1 symmetry.

  Rotational constants: A = 24124610.89560  B =      4.73175  C =      4.73175 [cm^-1]
  Rotational constants: A = 723237639868.56262  B = 141854.39343  C = 141854.36561 [MHz]
  Nuclear repulsion =    3.383298949798030

  Charge       = 0
  Multiplicity = 1
  Electrons    = 6
  Nalpha       = 3
  Nbeta        = 3

  ==> Algorithm <==

  SCF Algorithm Type is PK.
  DIIS enabled.
  MOM disabled.
  Fractional occupation disabled.
  Guess Type is SAD.
  Energy threshold   = 1.00e-06
  Density threshold  = 1.00e-06
  Integral threshold = 0.00e+00

  ==> Primary Basis <==

  Basis Set: STO-3G
    Blend: STO-3G
    Number of shells: 5
    Number of basis function: 7
    Number of Cartesian functions: 7
    Spherical Harmonics?: true
    Max angular momentum: 1

  ==> Pre-Iterations <==

   -------------------------------------------------------
    Irrep   Nso     Nmo     Nalpha   Nbeta   Ndocc  Nsocc
   -------------------------------------------------------
     A          7       7       0       0       0       0
   -------------------------------------------------------
    Total       7       7       3       3       3       0
   -------------------------------------------------------

  ==> Integral Setup <==

  Using in-core PK algorithm.
   Calculation information:
      Number of atoms:                   3
      Number of AO shells:               5
      Number of primitives:             15
      Number of atomic orbitals:         7
      Number of basis functions:         7

      Integral cutoff                 1.00e-12
      Number of threads:                 1

  Performing in-core PK
  Using 812 doubles for integral storage.
  We computed 120 shell quartets total.
  Whereas there are 120 unique shell quartets.

  ==> DiskJK: Disk-Based J/K Matrices <==

    J tasked:                  Yes
    K tasked:                  Yes
    wK tasked:                  No
    Memory [MiB]:             5722
    Schwarz Cutoff:          1E-12

    OpenMP threads:              1

  Minimum eigenvalue in the overlap matrix is 2.3362326613E-01.
  Using Symmetric Orthogonalization.

  SCF Guess: Superposition of Atomic Densities via on-the-fly atomic UHF.

  ==> Iterations <==

                        Total Energy        Delta E     RMS |[F,P]|

   @RHF iter SAD:   -14.64057580011669   -1.46406e+01   0.00000e+00 
   @RHF iter   1:   -15.54879154844830   -9.08216e-01   1.56204e-02 DIIS
   @RHF iter   2:   -15.56004992447199   -1.12584e-02   1.27935e-03 DIIS
   @RHF iter   3:   -15.56013065003637   -8.07256e-05   5.78391e-05 DIIS
   @RHF iter   4:   -15.56013082780386   -1.77767e-07   6.79359e-06 DIIS
   @RHF iter   5:   -15.56013083038092   -2.57706e-09   4.85475e-08 DIIS
  Energy and wave function converged.


  ==> Post-Iterations <==

    Orbital Energies [Eh]
    ---------------------

    Doubly Occupied:                                                      

       1A     -4.519588     2A     -0.457794     3A     -0.421723  

    Virtual:                                                              

       4A      0.211811     5A      0.211811     6A      0.462121  
       7A      0.946486  

    Final Occupation by Irrep:
              A 
    DOCC [     3 ]

  @RHF Final Energy:   -15.56013083038092

   => Energetics <=

    Nuclear Repulsion Energy =              3.3832989497980304
    One-Electron Energy =                 -27.0886489187968813
    Two-Electron Energy =                   8.1452191386179358
    Total Energy =                        -15.5601308303809169

Computation Completed


Properties will be evaluated at   0.000000,   0.000000,   0.000000 [a0]

Properties computed using the SCF density matrix

  Nuclear Dipole Moment: [e a0]
     X:     0.0006      Y:     0.0009      Z:     0.0000

  Electronic Dipole Moment: [e a0]
     X:    -0.0010      Y:    -0.0017      Z:    -0.0000

  Dipole Moment: [e a0]
     X:    -0.0004      Y:    -0.0008      Z:    -0.0000     Total:     0.0009

  Dipole Moment: [D]
     X:    -0.0011      Y:    -0.0019      Z:    -0.0000     Total:     0.0022


*** tstop() called on trurls-machine at Thu Mar  5 11:17:09 2020
Module time:
	user time   =       0.18 seconds =       0.00 minutes
	system time =       0.01 seconds =       0.00 minutes
	total time  =          0 seconds =       0.00 minutes
Total time:
	user time   =       0.66 seconds =       0.01 minutes
	system time =       0.04 seconds =       0.00 minutes
	total time  =          1 seconds =       0.02 minutes
 MINTS: Wrapper to libmints.
   by Justin Turney

   Calculation information:
      Number of threads:                 1
      Number of atoms:                   3
      Number of AO shells:               5
      Number of SO shells:               5
      Number of primitives:             15
      Number of atomic orbitals:         7
      Number of basis functions:         7

      Number of irreps:                  1
      Integral cutoff                 0.00e+00
      Number of functions per irrep: [   7 ]

 OEINTS: Overlap, kinetic, potential, dipole, and quadrupole integrals
         stored in file 35.

      Computing two-electron integrals...done
      Computed 242 non-zero two-electron integrals.
        Stored in file 33.


         ---------------------------------------------------------
                          Configuration Interaction
                            (a 'D E T C I' module)

                 C. David Sherrill, Daniel G. A. Smith, and
                              Matt L. Leininger
         ---------------------------------------------------------


   ==> Parameters <==

    EX LEVEL       =        2      H0 BLOCKSIZE  =     1000
    VAL EX LEVEL   =        0      H0 GUESS SIZE =     1000
    H0COUPLINGSIZE =        0      H0 COUPLING   =       NO
    MAXITER        =       24      NUM PRINT     =       20
    NUM ROOTS      =        1      ICORE         =        1
    PRINT LVL      =        1      FCI           =       NO
    R CONV         = 1.00e-06      MIXED         =      YES
    E CONV         = 1.00e-06      MIXED4        =      YES
    R4S            =       NO      REPL OTF      =       NO
    DIAG METHOD    =      SEM      FOLLOW ROOT   =        0
    PRECONDITIONER = DAVIDSON      UPDATE        = DAVIDSON
    S              =   0.0000      Ms0           =      YES
    GUESS VECTOR   =  H0BLOCK      OPENTYPE      =     NONE
    COLLAPSE SIZE  =        1      HD AVG        = EVANGELISTI
    MAX NUM VECS   =       25      REF SYM       =     AUTO
    IOPEN        =       NO

    EX ALLOW       =  1  1 
    STATE AVERAGE  =  0(1.00) 

   ==> CI Orbital and Space information <==

    RAS1 LVL      =        2      A RAS3 MAX    =        2
    RAS1 MIN      =        4      B RAS3 MAX    =        2
    A RAS1 LVL    =        2      RAS4 LVL      =        7
    A RAS1 MIN    =        1      A RAS4 MAX    =        0
    A RAS1 MAX    =        3      B RAS4 MAX    =        0
    B RAS1 LVL    =        2      RAS4 MAX      =        0
    B RAS1 MIN    =        1      A RAS34 MAX   =        2
    B RAS1 MAX    =        3      B RAS34 MAX   =        2
    RAS3 LVL      =        3      RAS34 MAX     =        2
    RAS3 MAX      =        2
   ------------------------------------
               Space    Total     A
   ------------------------------------
                 Nso        7     7
                 Nmo        7     7
               Ndocc        3     3
               Nsocc        0     0
   ------------------------------------
              CI Spaces
   ------------------------------------
        Dropped DOCC        0     0
                RAS1        3     3
                RAS2        0     0
                RAS3        4     4
                RAS4        0     0
      Active (total)        7     7
        Dropped UOCC        0     0
   ------------------------------------

   ==> Setting up CI strings <==

    There are 31 alpha and 31 beta strings
    The CI space requires 205 (2.05E+02) determinants and 6 blocks

   ==> Transforming CI integrals <==

	Presorting SO-basis two-electron integrals.
	Sorting File: SO Ints (nn|nn) nbuckets = 1
	Transforming the one-electron integrals and constructing Fock matrices
	Starting first half-transformation.
	Sorting half-transformed integrals.
	First half integral transformation complete.
	Starting second half-transformation.
	Two-electron integral transformation complete.

   ==> Starting CI iterations <==

    H0 Block Eigenvalue = -15.59436801

    Simultaneous Expansion Method (Block Davidson Method)
    Using 1 initial trial vectors

     Iter   Root       Total Energy       Delta E      C RMS

   @CI  0:     0    -15.594368013545   -1.8978E+01   5.3435E-14  
    Warning: Norm of correction (root 0) is < 1.0E-13
   @CI  1:     0    -15.594368013545   0.0000E+00   3.2370E-13 c

   ==> Energetics <==

    SCF energy =          -15.560130830380917
    Total CI energy =     -15.594368013545173

   ==> CISD root 0 information <==

    CISD Root 0 energy =   -15.594368013545173

   The 20 most important determinants:

    *   1    0.986986  (    0,    0)  1AX 2AX 3AX 
    *   2   -0.076980  (    7,    7)  1AX 2AX 6AX 
    *   3   -0.057753  (    8,    8)  1AX 3AX 6AX 
    *   4   -0.052981  (    2,    2)  1AX 3AX 4AX 
    *   5   -0.052981  (    5,    5)  1AX 3AX 5AX 
    *   6    0.048370  (    8,   10)  1AX 2AB 3AA 6AA 7AB 
    *   7    0.048370  (   10,    8)  1AX 2AA 3AB 6AB 7AA 
    *   8    0.042015  (    7,   11)  1AX 2AA 3AB 6AA 7AB 
    *   9    0.042015  (   11,    7)  1AX 2AB 3AA 6AB 7AA 
    *  10   -0.040352  (   10,   10)  1AX 2AX 7AX 
    *  11   -0.027814  (   11,   11)  1AX 3AX 7AX 
    *  12    0.010266  (    0,    8)  1AX 2AA 3AX 6AB 
    *  13    0.010266  (    8,    0)  1AX 2AB 3AX 6AA 
    *  14   -0.006356  (    0,   28)  1AX 2AA 3AA 6AB 7AB 
    *  15   -0.006356  (   28,    0)  1AX 2AB 3AB 6AA 7AA 
    *  16    0.003365  (    0,   10)  1AX 2AX 3AA 7AB 
    *  17    0.003365  (   10,    0)  1AX 2AX 3AB 7AA 
    *  18   -0.003084  (    5,    6)  1AA 2AB 3AX 5AX 
    *  19   -0.003084  (    6,    5)  1AB 2AA 3AX 5AX 
    *  20   -0.003084  (    2,    3)  1AA 2AB 3AX 4AX 

		 "A good bug is a dead bug" 

			 - Starship Troopers

		 "I didn't write FORTRAN.  That's the problem."

			 - Edward Valeev

*** tstart() called on trurls-machine
*** at Thu Mar  5 11:17:09 2020

   => Loading Basis Set <=

    Name: STO-3G
    Role: ORBITAL
    Keyword: BASIS
    atoms 1, 3 entry H          line    19 file /Users/teague/anaconda3/envs/gen_env/share/psi4/basis/sto-3g.gbs 
    atoms 2    entry BE         line    41 file /Users/teague/anaconda3/envs/gen_env/share/psi4/basis/sto-3g.gbs 


         ---------------------------------------------------------
                                   SCF
               by Justin Turney, Rob Parrish, Andy Simmonett
                          and Daniel G. A. Smith
                              RHF Reference
                        1 Threads,   7629 MiB Core
         ---------------------------------------------------------

  ==> Geometry <==

    Molecular point group: c1
    Full point group: Cs

    Geometry (in Angstrom), charge = 0, multiplicity = 1:

       Center              X                  Y                   Z               Mass       
    ------------   -----------------  -----------------  -----------------  -----------------
         H           -1.151063972452     0.665199471862     0.000000000000     1.007825032230
         BE          -0.000063972452    -0.000100528138     0.000000000000     9.012183065000
         H            1.151636027548    -0.664300528138     0.000000000000     1.007825032230

  Running in c1 symmetry.

  Rotational constants: A = 24124610.89560  B =      4.73175  C =      4.73175 [cm^-1]
  Rotational constants: A = 723237639868.56262  B = 141854.39343  C = 141854.36561 [MHz]
  Nuclear repulsion =    3.383298949798030

  Charge       = 0
  Multiplicity = 1
  Electrons    = 6
  Nalpha       = 3
  Nbeta        = 3

  ==> Algorithm <==

  SCF Algorithm Type is PK.
  DIIS enabled.
  MOM disabled.
  Fractional occupation disabled.
  Guess Type is SAD.
  Energy threshold   = 1.00e-06
  Density threshold  = 1.00e-06
  Integral threshold = 0.00e+00

  ==> Primary Basis <==

  Basis Set: STO-3G
    Blend: STO-3G
    Number of shells: 5
    Number of basis function: 7
    Number of Cartesian functions: 7
    Spherical Harmonics?: true
    Max angular momentum: 1

  ==> Pre-Iterations <==

   -------------------------------------------------------
    Irrep   Nso     Nmo     Nalpha   Nbeta   Ndocc  Nsocc
   -------------------------------------------------------
     A          7       7       0       0       0       0
   -------------------------------------------------------
    Total       7       7       3       3       3       0
   -------------------------------------------------------

  ==> Integral Setup <==

  Using in-core PK algorithm.
   Calculation information:
      Number of atoms:                   3
      Number of AO shells:               5
      Number of primitives:             15
      Number of atomic orbitals:         7
      Number of basis functions:         7

      Integral cutoff                 1.00e-12
      Number of threads:                 1

  Performing in-core PK
  Using 812 doubles for integral storage.
  We computed 120 shell quartets total.
  Whereas there are 120 unique shell quartets.

  ==> DiskJK: Disk-Based J/K Matrices <==

    J tasked:                  Yes
    K tasked:                  Yes
    wK tasked:                  No
    Memory [MiB]:             5722
    Schwarz Cutoff:          1E-12

    OpenMP threads:              1

  Minimum eigenvalue in the overlap matrix is 2.3362326613E-01.
  Using Symmetric Orthogonalization.

  SCF Guess: Superposition of Atomic Densities via on-the-fly atomic UHF.

  ==> Iterations <==

                        Total Energy        Delta E     RMS |[F,P]|

   @RHF iter SAD:   -14.64057580011669   -1.46406e+01   0.00000e+00 
   @RHF iter   1:   -15.54879154844830   -9.08216e-01   1.56204e-02 DIIS
   @RHF iter   2:   -15.56004992447199   -1.12584e-02   1.27935e-03 DIIS
   @RHF iter   3:   -15.56013065003637   -8.07256e-05   5.78391e-05 DIIS
   @RHF iter   4:   -15.56013082780386   -1.77767e-07   6.79359e-06 DIIS
   @RHF iter   5:   -15.56013083038092   -2.57706e-09   4.85475e-08 DIIS
  Energy and wave function converged.


  ==> Post-Iterations <==

    Orbital Energies [Eh]
    ---------------------

    Doubly Occupied:                                                      

       1A     -4.519588     2A     -0.457794     3A     -0.421723  

    Virtual:                                                              

       4A      0.211811     5A      0.211811     6A      0.462121  
       7A      0.946486  

    Final Occupation by Irrep:
              A 
    DOCC [     3 ]

  @RHF Final Energy:   -15.56013083038092

   => Energetics <=

    Nuclear Repulsion Energy =              3.3832989497980304
    One-Electron Energy =                 -27.0886489187968813
    Two-Electron Energy =                   8.1452191386179358
    Total Energy =                        -15.5601308303809169

Computation Completed


Properties will be evaluated at   0.000000,   0.000000,   0.000000 [a0]

Properties computed using the SCF density matrix

  Nuclear Dipole Moment: [e a0]
     X:     0.0006      Y:     0.0009      Z:     0.0000

  Electronic Dipole Moment: [e a0]
     X:    -0.0010      Y:    -0.0017      Z:    -0.0000

  Dipole Moment: [e a0]
     X:    -0.0004      Y:    -0.0008      Z:    -0.0000     Total:     0.0009

  Dipole Moment: [D]
     X:    -0.0011      Y:    -0.0019      Z:    -0.0000     Total:     0.0022


*** tstop() called on trurls-machine at Thu Mar  5 11:17:09 2020
Module time:
	user time   =       0.16 seconds =       0.00 minutes
	system time =       0.02 seconds =       0.00 minutes
	total time  =          0 seconds =       0.00 minutes
Total time:
	user time   =       0.88 seconds =       0.01 minutes
	system time =       0.07 seconds =       0.00 minutes
	total time  =          1 seconds =       0.02 minutes
 MINTS: Wrapper to libmints.
   by Justin Turney

   Calculation information:
      Number of threads:                 1
      Number of atoms:                   3
      Number of AO shells:               5
      Number of SO shells:               5
      Number of primitives:             15
      Number of atomic orbitals:         7
      Number of basis functions:         7

      Number of irreps:                  1
      Integral cutoff                 0.00e+00
      Number of functions per irrep: [   7 ]

 OEINTS: Overlap, kinetic, potential, dipole, and quadrupole integrals
         stored in file 35.

      Computing two-electron integrals...done
      Computed 242 non-zero two-electron integrals.
        Stored in file 33.


         ---------------------------------------------------------
                          Configuration Interaction
                            (a 'D E T C I' module)

                 C. David Sherrill, Daniel G. A. Smith, and
                              Matt L. Leininger
         ---------------------------------------------------------


   ==> Parameters <==

    EX LEVEL       =        6      H0 BLOCKSIZE  =     1000
    VAL EX LEVEL   =        0      H0 GUESS SIZE =     1000
    H0COUPLINGSIZE =        0      H0 COUPLING   =       NO
    MAXITER        =       24      NUM PRINT     =       20
    NUM ROOTS      =        1      ICORE         =        1
    PRINT LVL      =        1      FCI           =      YES
    R CONV         = 1.00e-06      MIXED         =      YES
    E CONV         = 1.00e-06      MIXED4        =      YES
    R4S            =       NO      REPL OTF      =       NO
    DIAG METHOD    =      SEM      FOLLOW ROOT   =        0
    PRECONDITIONER = DAVIDSON      UPDATE        = DAVIDSON
    S              =   0.0000      Ms0           =      YES
    GUESS VECTOR   =  H0BLOCK      OPENTYPE      =     NONE
    COLLAPSE SIZE  =        1      HD AVG        = EVANGELISTI
    MAX NUM VECS   =       25      REF SYM       =     AUTO
    IOPEN        =       NO

    EX ALLOW       =  1  1  1  1  1  1 
    STATE AVERAGE  =  0(1.00) 

   ==> CI Orbital and Space information <==

   ------------------------------------
               Space    Total     A
   ------------------------------------
                 Nso        7     7
                 Nmo        7     7
               Ndocc        3     3
               Nsocc        0     0
   ------------------------------------
              CI Spaces
   ------------------------------------
        Dropped DOCC        0     0
              Active        7     7
        Dropped UOCC        0     0
   ------------------------------------

   ==> Setting up CI strings <==

    There are 35 alpha and 35 beta strings
    The CI space requires 1225 (1.22E+03) determinants and 1 blocks

   ==> Transforming CI integrals <==

	Presorting SO-basis two-electron integrals.
	Sorting File: SO Ints (nn|nn) nbuckets = 1
	Transforming the one-electron integrals and constructing Fock matrices
	Starting first half-transformation.
	Sorting half-transformed integrals.
	First half integral transformation complete.
	Starting second half-transformation.
	Two-electron integral transformation complete.

   ==> Starting CI iterations <==

    H0 Block Eigenvalue = -15.59512502

    Simultaneous Expansion Method (Block Davidson Method)
    Using 1 initial trial vectors

     Iter   Root       Total Energy       Delta E      C RMS

   @CI  0:     0    -15.595125019238   -1.8978E+01   5.2549E-03  
   @CI  1:     0    -15.595127310181   -2.2909E-06   2.6031E-04  
   @CI  2:     0    -15.595127316473   -6.2921E-09   2.7341E-05  
   @CI  3:     0    -15.595127316616   -1.4254E-10   8.7003E-06  
   @CI  4:     0    -15.595127316629   -1.2975E-11   1.7839E-06  
   @CI  5:     0    -15.595127316630   -7.4607E-13   6.6187E-07 c

   ==> Energetics <==

    SCF energy =          -15.560130830380917
    Total CI energy =     -15.595127316629609

   ==> FCI root 0 information <==

    FCI Root 0 energy =   -15.595127316629609

   The 20 most important determinants:

    *   1    0.986002  (    0,    0)  1AX 2AX 3AX 
    *   2   -0.079926  (   10,   10)  1AX 2AX 6AX 
    *   3   -0.057869  (   11,   11)  1AX 3AX 6AX 
    *   4   -0.056335  (    2,    2)  1AX 3AX 4AX 
    *   5   -0.056335  (    5,    5)  1AX 3AX 5AX 
    *   6    0.049090  (   11,   20)  1AX 2AB 3AA 6AA 7AB 
    *   7    0.049090  (   20,   11)  1AX 2AA 3AB 6AB 7AA 
    *   8    0.042432  (   10,   21)  1AX 2AA 3AB 6AA 7AB 
    *   9    0.042432  (   21,   10)  1AX 2AB 3AA 6AB 7AA 
    *  10   -0.040603  (   20,   20)  1AX 2AX 7AX 
    *  11   -0.027628  (   21,   21)  1AX 3AX 7AX 
    *  12    0.011407  (    0,   11)  1AX 2AA 3AX 6AB 
    *  13    0.011407  (   11,    0)  1AX 2AB 3AX 6AA 
    *  14    0.009026  (   30,   30)  1AX 6AX 7AX 
    *  15   -0.006896  (    4,   16)  1AX 2AA 5AX 6AB 
    *  16   -0.006896  (   16,    4)  1AX 2AB 5AX 6AA 
    *  17   -0.006896  (    1,   13)  1AX 2AA 4AX 6AB 
    *  18   -0.006896  (   13,    1)  1AX 2AB 4AX 6AA 
    *  19   -0.006658  (    0,   30)  1AX 2AA 3AA 6AB 7AB 
    *  20   -0.006658  (   30,    0)  1AX 2AB 3AB 6AA 7AA 

		 "A good bug is a dead bug" 

			 - Starship Troopers

		 "I didn't write FORTRAN.  That's the problem."

			 - Edward Valeev

*** tstart() called on trurls-machine
*** at Thu Mar  5 11:17:10 2020

   => Loading Basis Set <=

    Name: STO-3G
    Role: ORBITAL
    Keyword: BASIS
    atoms 1, 3 entry H          line    19 file /Users/teague/anaconda3/envs/gen_env/share/psi4/basis/sto-3g.gbs 
    atoms 2    entry BE         line    41 file /Users/teague/anaconda3/envs/gen_env/share/psi4/basis/sto-3g.gbs 


         ---------------------------------------------------------
                                   SCF
               by Justin Turney, Rob Parrish, Andy Simmonett
                          and Daniel G. A. Smith
                              RHF Reference
                        1 Threads,   7629 MiB Core
         ---------------------------------------------------------

  ==> Geometry <==

    Molecular point group: c1
    Full point group: Cs

    Geometry (in Angstrom), charge = 0, multiplicity = 1:

       Center              X                  Y                   Z               Mass       
    ------------   -----------------  -----------------  -----------------  -----------------
         H           -1.151063972452     0.665199471862     0.000000000000     1.007825032230
         BE          -0.000063972452    -0.000100528138     0.000000000000     9.012183065000
         H            1.151636027548    -0.664300528138     0.000000000000     1.007825032230

  Running in c1 symmetry.

  Rotational constants: A = 24124610.89560  B =      4.73175  C =      4.73175 [cm^-1]
  Rotational constants: A = 723237639868.56262  B = 141854.39343  C = 141854.36561 [MHz]
  Nuclear repulsion =    3.383298949798030

  Charge       = 0
  Multiplicity = 1
  Electrons    = 6
  Nalpha       = 3
  Nbeta        = 3

  ==> Algorithm <==

  SCF Algorithm Type is PK.
  DIIS enabled.
  MOM disabled.
  Fractional occupation disabled.
  Guess Type is SAD.
  Energy threshold   = 1.00e-06
  Density threshold  = 1.00e-06
  Integral threshold = 0.00e+00

  ==> Primary Basis <==

  Basis Set: STO-3G
    Blend: STO-3G
    Number of shells: 5
    Number of basis function: 7
    Number of Cartesian functions: 7
    Spherical Harmonics?: true
    Max angular momentum: 1

  ==> Pre-Iterations <==

   -------------------------------------------------------
    Irrep   Nso     Nmo     Nalpha   Nbeta   Ndocc  Nsocc
   -------------------------------------------------------
     A          7       7       0       0       0       0
   -------------------------------------------------------
    Total       7       7       3       3       3       0
   -------------------------------------------------------

  ==> Integral Setup <==

  Using in-core PK algorithm.
   Calculation information:
      Number of atoms:                   3
      Number of AO shells:               5
      Number of primitives:             15
      Number of atomic orbitals:         7
      Number of basis functions:         7

      Integral cutoff                 1.00e-12
      Number of threads:                 1

  Performing in-core PK
  Using 812 doubles for integral storage.
  We computed 120 shell quartets total.
  Whereas there are 120 unique shell quartets.

  ==> DiskJK: Disk-Based J/K Matrices <==

    J tasked:                  Yes
    K tasked:                  Yes
    wK tasked:                  No
    Memory [MiB]:             5722
    Schwarz Cutoff:          1E-12

    OpenMP threads:              1

  Minimum eigenvalue in the overlap matrix is 2.3362326613E-01.
  Using Symmetric Orthogonalization.

  SCF Guess: Superposition of Atomic Densities via on-the-fly atomic UHF.

  ==> Iterations <==

                        Total Energy        Delta E     RMS |[F,P]|

   @RHF iter SAD:   -14.64057580011669   -1.46406e+01   0.00000e+00 
   @RHF iter   1:   -15.54879154844830   -9.08216e-01   1.56204e-02 DIIS
   @RHF iter   2:   -15.56004992447199   -1.12584e-02   1.27935e-03 DIIS
   @RHF iter   3:   -15.56013065003637   -8.07256e-05   5.78391e-05 DIIS
   @RHF iter   4:   -15.56013082780386   -1.77767e-07   6.79359e-06 DIIS
   @RHF iter   5:   -15.56013083038092   -2.57706e-09   4.85475e-08 DIIS
  Energy and wave function converged.


  ==> Post-Iterations <==

    Orbital Energies [Eh]
    ---------------------

    Doubly Occupied:                                                      

       1A     -4.519588     2A     -0.457794     3A     -0.421723  

    Virtual:                                                              

       4A      0.211811     5A      0.211811     6A      0.462121  
       7A      0.946486  

    Final Occupation by Irrep:
              A 
    DOCC [     3 ]

  @RHF Final Energy:   -15.56013083038092

   => Energetics <=

    Nuclear Repulsion Energy =              3.3832989497980304
    One-Electron Energy =                 -27.0886489187968813
    Two-Electron Energy =                   8.1452191386179358
    Total Energy =                        -15.5601308303809169

Computation Completed


Properties will be evaluated at   0.000000,   0.000000,   0.000000 [a0]

Properties computed using the SCF density matrix

  Nuclear Dipole Moment: [e a0]
     X:     0.0006      Y:     0.0009      Z:     0.0000

  Electronic Dipole Moment: [e a0]
     X:    -0.0010      Y:    -0.0017      Z:    -0.0000

  Dipole Moment: [e a0]
     X:    -0.0004      Y:    -0.0008      Z:    -0.0000     Total:     0.0009

  Dipole Moment: [D]
     X:    -0.0011      Y:    -0.0019      Z:    -0.0000     Total:     0.0022


*** tstop() called on trurls-machine at Thu Mar  5 11:17:10 2020
Module time:
	user time   =       0.15 seconds =       0.00 minutes
	system time =       0.00 seconds =       0.00 minutes
	total time  =          0 seconds =       0.00 minutes
Total time:
	user time   =       1.44 seconds =       0.02 minutes
	system time =       0.10 seconds =       0.00 minutes
	total time  =          2 seconds =       0.03 minutes
 MINTS: Wrapper to libmints.
   by Justin Turney

   Calculation information:
      Number of threads:                 1
      Number of atoms:                   3
      Number of AO shells:               5
      Number of SO shells:               5
      Number of primitives:             15
      Number of atomic orbitals:         7
      Number of basis functions:         7

      Number of irreps:                  1
      Integral cutoff                 0.00e+00
      Number of functions per irrep: [   7 ]

 OEINTS: Overlap, kinetic, potential, dipole, and quadrupole integrals
         stored in file 35.

      Computing two-electron integrals...done
      Computed 242 non-zero two-electron integrals.
        Stored in file 33.


*** tstart() called on trurls-machine
*** at Thu Mar  5 11:17:10 2020


	Wfn Parameters:
	--------------------
	Wavefunction         = CCSD
	Number of irreps     = 1
	Number of MOs        = 7
	Number of active MOs = 7
	AO-Basis             = NONE
	Semicanonical        = false
	Reference            = RHF
	Print Level          = 1

	IRREP	# MOs	# FZDC	# DOCC	# SOCC	# VIRT	# FZVR
	-----	-----	------	------	------	------	------
	 A	   7	    0	    3	    0	    4	    0
	Transforming integrals...
	IWL integrals will be deleted.
	(OO|OO)...
	Presorting SO-basis two-electron integrals.
	Sorting File: SO Ints (nn|nn) nbuckets = 1
	Transforming the one-electron integrals and constructing Fock matrices
	Starting first half-transformation.
	Sorting half-transformed integrals.
	First half integral transformation complete.
	Starting second half-transformation.
	Two-electron integral transformation complete.
	(OO|OV)...
	Starting second half-transformation.
	Two-electron integral transformation complete.
	(OO|VV)...
	Starting second half-transformation.
	Two-electron integral transformation complete.
	(OV|OO)...
	Starting first half-transformation.
	Sorting half-transformed integrals.
	First half integral transformation complete.
	Starting second half-transformation.
	Two-electron integral transformation complete.
	(OV|OV)...
	Starting second half-transformation.
	Two-electron integral transformation complete.
	(OV|VV)...
	Starting second half-transformation.
	Two-electron integral transformation complete.
	(VV|OO)...
	Starting first half-transformation.
	Sorting half-transformed integrals.
	First half integral transformation complete.
	Starting second half-transformation.
	Two-electron integral transformation complete.
	(VV|OV)...
	Starting second half-transformation.
	Two-electron integral transformation complete.
	(VV|VV)...
	Starting second half-transformation.
	Two-electron integral transformation complete.
	Frozen core energy     =      0.00000000000000

	Size of irrep 0 of <ab|cd> integrals:      0.000 (MW) /      0.002 (MB)
	Total:                                     0.000 (MW) /      0.002 (MB)

	Size of irrep 0 of <ia|bc> integrals:      0.000 (MW) /      0.002 (MB)
	Total:                                     0.000 (MW) /      0.002 (MB)

	Size of irrep 0 of tijab amplitudes:       0.000 (MW) /      0.001 (MB)
	Total:                                     0.000 (MW) /      0.001 (MB)

	Nuclear Rep. energy          =      3.38329894979803
	SCF energy                   =    -15.56013083038092
	One-electron energy          =    -27.08864890647392
	Two-electron energy          =      8.14521912629485
	Reference energy             =    -15.56013083038104

*** tstop() called on trurls-machine at Thu Mar  5 11:17:10 2020
Module time:
	user time   =       0.01 seconds =       0.00 minutes
	system time =       0.03 seconds =       0.00 minutes
	total time  =          0 seconds =       0.00 minutes
Total time:
	user time   =       1.46 seconds =       0.02 minutes
	system time =       0.14 seconds =       0.00 minutes
	total time  =          2 seconds =       0.03 minutes
            **************************
            *                        *
            *        CCENERGY        *
            *                        *
            **************************

    Nuclear Rep. energy (wfn)     =    3.383298949798030
    SCF energy          (wfn)     =  -15.560130830380917
    Reference energy    (file100) =  -15.560130830381043

    Input parameters:
    -----------------
    Wave function   =     CCSD
    Reference wfn   =     RHF
    Brueckner       =     No
    Memory (Mbytes) =     8000.0
    Maxiter         =   1000000
    R_Convergence   =     1.0e-06
    E_Convergence   =     1.0e-06
    Restart         =     Yes
    DIIS            =     Yes
    AO Basis        =     NONE
    ABCD            =     NEW
    Cache Level     =     2
    Cache Type      =     LOW
    Print Level     =     1
    Num. of threads =     1
    # Amps to Print =     1000000
    Print MP2 Amps? =     No
    Analyze T2 Amps =     No
    Print Pair Ener =     No
    Local CC        =     No
    SCS-MP2         =     False
    SCSN-MP2        =     False
    SCS-CCSD        =     False

MP2 correlation energy -0.0232407661730751
                Solving CC Amplitude Equations
                ------------------------------
  Iter             Energy              RMS        T1Diag      D1Diag    New D1Diag    D2Diag
  ----     ---------------------    ---------   ----------  ----------  ----------   --------
     0        -0.023240766173075    0.000e+00    0.000000    0.000000    0.000000    0.081685
     1        -0.030591752355086    3.604e-02    0.002113    0.005007    0.005007    0.106846
     2        -0.034492368858354    1.384e-02    0.003895    0.009169    0.009169    0.119975
     3        -0.034586252761322    2.498e-03    0.004390    0.010245    0.010245    0.120361
     4        -0.034607183756357    5.801e-04    0.004522    0.010538    0.010538    0.120554
     5        -0.034599964656102    8.462e-05    0.004538    0.010581    0.010581    0.120543
     6        -0.034600201035910    1.447e-05    0.004541    0.010589    0.010589    0.120539
     7        -0.034600464600845    3.550e-06    0.004541    0.010589    0.010589    0.120538
     8        -0.034600430675562    6.114e-07    0.004541    0.010589    0.010589    0.120538

    Iterations converged.


    Largest TIA Amplitudes:
              1   2        -0.0105830706
              2   3         0.0034061367
              0   2         0.0003522658
              1   0        -0.0000355060
              2   2         0.0000015207
              1   3         0.0000002387
              0   0         0.0000001506
              0   3         0.0000000201

    Largest TIjAb Amplitudes:
      2   2   2   2        -0.0788299651
      1   1   2   2        -0.0592410597
      1   1   0   0        -0.0542461107
      1   1   1   1        -0.0542461036
      1   2   2   3        -0.0494453685
      2   1   3   2        -0.0494453685
      1   2   3   2        -0.0429697657
      2   1   2   3        -0.0429697657
      2   2   3   3        -0.0413381461
      1   1   3   3        -0.0285517362
      0   1   1   1         0.0031334961
      1   0   1   1         0.0031334961
      0   1   0   0         0.0031334931
      1   0   0   0         0.0031334931
      0   0   2   2        -0.0018951520
      0   0   3   3        -0.0018003087
      2   2   0   0        -0.0016286878
      2   2   1   1        -0.0016286185
      0   0   0   0        -0.0015314538
      0   0   1   1        -0.0015314531
      0   1   3   3         0.0013031898
      1   0   3   3         0.0013031898
      0   1   2   2        -0.0008076141
      1   0   2   2        -0.0008076141
      0   2   2   3        -0.0004762562
      2   0   3   2        -0.0004762562
      0   2   3   2        -0.0004221660
      2   0   2   3        -0.0004221660
      2   2   0   2        -0.0000700222
      2   2   2   0        -0.0000700222
      1   2   0   3        -0.0000565710
      2   1   3   0        -0.0000565710
      1   2   3   0        -0.0000423846
      2   1   0   3        -0.0000423846
      2   2   2   3         0.0000149927
      2   2   3   2         0.0000149927
      1   1   2   3        -0.0000142188
      1   1   3   2        -0.0000142188
      1   1   0   2        -0.0000123938
      1   1   2   0        -0.0000123938
      1   2   1   1         0.0000079719
      2   1   1   1         0.0000079719
      1   2   0   0         0.0000079719
      2   1   0   0         0.0000079719
      1   2   3   3        -0.0000042364
      2   1   3   3        -0.0000042364
      0   1   2   0        -0.0000034737
      1   0   0   2        -0.0000034737
      0   1   0   2        -0.0000033336
      1   0   2   0        -0.0000033336
      1   2   2   2         0.0000028502
      2   1   2   2         0.0000028502
      0   2   0   3         0.0000005809
      2   0   3   0         0.0000005809
      0   2   0   0        -0.0000004815
      0   2   1   1        -0.0000004815
      2   0   0   0        -0.0000004815
      2   0   1   1        -0.0000004815
      0   0   0   2        -0.0000004720
      0   0   2   0        -0.0000004720
      0   2   3   0         0.0000004462
      2   0   0   3         0.0000004462
      0   2   3   3        -0.0000003116
      2   0   3   3        -0.0000003116
      0   2   2   2         0.0000001850
      2   0   2   2         0.0000001850
      0   1   3   2        -0.0000001706
      1   0   2   3        -0.0000001706
      0   1   2   3        -0.0000001456
      1   0   3   2        -0.0000001456
      0   0   2   3         0.0000000237
      0   0   3   2         0.0000000237
      1   1   0   3        -0.0000000155
      1   1   3   0        -0.0000000155
      2   2   0   3         0.0000000151
      2   2   3   0         0.0000000151

    SCF energy       (wfn)                    =  -15.560130830380917
    Reference energy (file100)                =  -15.560130830381043

    Opposite-spin MP2 correlation energy      =   -0.023118621162793
    Same-spin MP2 correlation energy          =   -0.000122145010282
    MP2 correlation energy                    =   -0.023240766173075
      * MP2 total energy                      =  -15.583371596554118

    Opposite-spin CCSD correlation energy     =   -0.034446652264294
    Same-spin CCSD correlation energy         =   -0.000153778411268
    CCSD correlation energy                   =   -0.034600430675562
      * CCSD total energy                     =  -15.594731261056605


    Psi4 stopped on: Thursday, 05 March 2020 11:17AM
    Psi4 wall time for execution: 0:00:02.41

*** Psi4 exiting successfully. Buy a developer a beer!
