
    -----------------------------------------------------------------------
          Psi4: An Open-Source Ab Initio Electronic Structure Package
                               Psi4 1.3.2 release

                         Git: Rev {HEAD} ecbda83 


    R. M. Parrish, L. A. Burns, D. G. A. Smith, A. C. Simmonett,
    A. E. DePrince III, E. G. Hohenstein, U. Bozkaya, A. Yu. Sokolov,
    R. Di Remigio, R. M. Richard, J. F. Gonthier, A. M. James,
    H. R. McAlexander, A. Kumar, M. Saitow, X. Wang, B. P. Pritchard,
    P. Verma, H. F. Schaefer III, K. Patkowski, R. A. King, E. F. Valeev,
    F. A. Evangelista, J. M. Turney, T. D. Crawford, and C. D. Sherrill,
    J. Chem. Theory Comput. 13(7) pp 3185--3197 (2017).
    (doi: 10.1021/acs.jctc.7b00174)


                         Additional Contributions by
    P. Kraus, H. Kruse, M. H. Lechner, M. C. Schieber, R. A. Shaw,
    A. Alenaizan, R. Galvelis, Z. L. Glick, S. Lehtola, and J. P. Misiewicz

    -----------------------------------------------------------------------


    Psi4 started on: Wednesday, 04 March 2020 12:37PM

    Process ID: 61057
    Host:       trurls-machine
    PSIDATADIR: /Users/teague/anaconda3/envs/gen_env/share/psi4
    Memory:     500.0 MiB
    Threads:    1
    
  ==> Input File <==

--------------------------------------------------------------------------
"""This is a template for psi4 input format."""
import numpy
import sys

from openfermion.config import *
from openfermion.hamiltonians import MolecularData
from openfermion.ops import general_basis_change

from numpy import array

sys.path.append('/Users/teague/.local/lib/python3.7/site-packages/openfermionpsi4')
from _psi4_conversion_functions import *


# Set memory that job can use in megabytes.
memory 8000 mb

# Initialize molecular data.
_description = 'grnd'
if _description == 'None':
    _description = None
molecule = MolecularData([('C', (0, 0, 0)), ('H', (0.5541, 0.7996, 0.4965)), ('H', (0.6833, -0.8134, -0.2536)), ('H', (-0.7782, -0.3735, 0.6692)), ('H', (-0.4593, 0.3874, -0.9121))],
                         'sto-3g',
                         1,
                         0,
                         _description,
                          filename='molecule_data/CH4_sto-3g_singlet_grnd')

# Set molecular geometry and symmetry.
molecule mol {
C 0 0 0
H 0.5541 0.7996 0.4965
H 0.6833 -0.8134 -0.2536
H -0.7782 -0.3735 0.6692
H -0.4593 0.3874 -0.9121
symmetry c1
}
mol.set_multiplicity(1)
mol.set_molecular_charge(0)

# Set reference and guess.
if molecule.multiplicity == 1:
    set reference rhf
    set guess sad
else:
    set reference rohf
    set guess gwh

# Set global parameters of calculation.
set globals {
    basis sto-3g
    freeze_core false
    fail_on_maxiter True
    df_scf_guess false
    opdm true
    tpdm true
    soscf false
    scf_type pk
    maxiter 1e6
    num_amps_print 1e6
    r_convergence 1e-6
    d_convergence 1e-6
    e_convergence 1e-6
    ints_tolerance EQUALITY_TOLERANCE
    damping_percentage 0
}

# Run self-consistent field (SCF) calculation.
if True:
    try:
        hf_energy, hf_wavefunction = energy('scf', return_wfn=True)
        if False:
            print('Hartree-Fock energy for {} ({} electrons) is {}.'.format(
                molecule.name, molecule.n_electrons, hf_energy))
    except:
        if False:
            print('WARNING: SCF calculation failed.')
        else:
            raise
    finally:
        # Get orbitals and Fock matrix.
        molecule.hf_energy = hf_energy
        molecule.nuclear_repulsion = mol.nuclear_repulsion_energy()
        molecule.canonical_orbitals = numpy.asarray(hf_wavefunction.Ca())
        molecule.overlap_integrals = numpy.asarray(hf_wavefunction.S())
        molecule.n_orbitals = molecule.canonical_orbitals.shape[0]
        molecule.n_qubits = 2 * molecule.n_orbitals
        molecule.orbital_energies = numpy.asarray(hf_wavefunction.epsilon_a())
        molecule.fock_matrix = numpy.asarray(hf_wavefunction.Fa())

        # Get integrals using MintsHelper.
        mints = MintsHelper(hf_wavefunction.basisset())
        molecule.one_body_integrals = general_basis_change(
            numpy.asarray(mints.ao_kinetic()), molecule.canonical_orbitals, (1, 0))
        molecule.one_body_integrals += general_basis_change(
            numpy.asarray(mints.ao_potential()), molecule.canonical_orbitals, (1, 0))
        two_body_integrals = numpy.asarray(mints.ao_eri())
        two_body_integrals.reshape((molecule.n_orbitals, molecule.n_orbitals,
                                    molecule.n_orbitals, molecule.n_orbitals))
        two_body_integrals = numpy.einsum('psqr', two_body_integrals)
        two_body_integrals = general_basis_change(
            two_body_integrals, molecule.canonical_orbitals, (1, 1, 0, 0))
        molecule.two_body_integrals = two_body_integrals
        molecule.save()


# Perform MP2 energy calculation if there are at least two electrons.
if True:
    try:
        assert molecule.n_electrons > 1
        mp2_energy = energy('mp2')
        if False:
            print('MP2 energy for {} ({} electrons) is {}.'.format(
                molecule.name, molecule.n_electrons, mp2_energy))
    except:
        if False:
            print('WARNING: MP2 calculation failed.')
        else:
            raise
    else:
        molecule.mp2_energy = mp2_energy
        molecule.save()


# Perform configuration interaction singles and doubles (CISD) calculation.
if True:
    set qc_module detci
    try:
        cisd_energy, cisd_wavefunction = energy('cisd', return_wfn=True)
        if False:
            print('CISD energy for {} ({} electrons) is {}.'.format(
                molecule.name, molecule.n_electrons, cisd_energy))
    except:
        if False:
            print('WARNING: CISD calculation failed.')
        else:
            raise
    else:
        # For the functions below, "a" and "b" refer to "up and "down" spins.
        molecule.cisd_energy = cisd_energy

        # Get 1-RDM from CISD calculation.
        cisd_one_rdm_a = numpy.array(cisd_wavefunction.get_opdm(
            0, 0, 'A', True)).reshape(molecule.n_orbitals, molecule.n_orbitals)
        cisd_one_rdm_b = numpy.array(cisd_wavefunction.get_opdm(
            0, 0, 'B', True)).reshape(molecule.n_orbitals, molecule.n_orbitals)

        # Get 2-RDM from CISD calculation.
        cisd_two_rdm_aa = numpy.array(cisd_wavefunction.get_tpdm(
            'AA', False)).reshape(molecule.n_orbitals, molecule.n_orbitals,
                                  molecule.n_orbitals, molecule.n_orbitals)
        cisd_two_rdm_ab = numpy.array(cisd_wavefunction.get_tpdm(
            'AB', False)).reshape(molecule.n_orbitals, molecule.n_orbitals,
                                  molecule.n_orbitals, molecule.n_orbitals)
        cisd_two_rdm_bb = numpy.array(cisd_wavefunction.get_tpdm(
            'BB', False)).reshape(molecule.n_orbitals, molecule.n_orbitals,
                                  molecule.n_orbitals, molecule.n_orbitals)

        # Get overall RDMs.
        cisd_one_rdm, cisd_two_rdm = unpack_spatial_rdm(
            cisd_one_rdm_a, cisd_one_rdm_b, cisd_two_rdm_aa,
            cisd_two_rdm_ab, cisd_two_rdm_bb)

        # Store 1-RDM in molecule file, 2-RDM separately in other file.
        molecule.cisd_one_rdm = cisd_one_rdm
        molecule.cisd_two_rdm = cisd_two_rdm
        molecule.save()


# Perform exact diagonalization.
if True:
    set qc_module detci
    try:
        fci_energy, fci_wavefunction = energy('fci', return_wfn=True)
        if False:
            print('FCI energy for {} ({} electrons) is {}.'.format(
                molecule.name, molecule.n_electrons, fci_energy))
    except:
        if False:
            print('WARNING: FCI calculation failed.')
        else:
            raise
    finally:
        # For the functions below, "a" and "b" refer to "up and "down" spins.
        molecule.fci_energy = fci_energy

        # Get 1-RDM from FCI calculation.
        fci_one_rdm_a = numpy.array(fci_wavefunction.get_opdm(
            0, 0, 'A', True)).reshape(molecule.n_orbitals, molecule.n_orbitals)
        fci_one_rdm_b = numpy.array(fci_wavefunction.get_opdm(
            0, 0, 'B', True)).reshape(molecule.n_orbitals, molecule.n_orbitals)

        # Get 2-RDM from FCI calculation.
        fci_two_rdm_aa = numpy.array(fci_wavefunction.get_tpdm(
            'AA', False)).reshape(molecule.n_orbitals, molecule.n_orbitals,
                                  molecule.n_orbitals, molecule.n_orbitals)
        fci_two_rdm_ab = numpy.array(fci_wavefunction.get_tpdm(
            'AB', False)).reshape(molecule.n_orbitals, molecule.n_orbitals,
                                  molecule.n_orbitals, molecule.n_orbitals)
        fci_two_rdm_bb = numpy.array(fci_wavefunction.get_tpdm(
            'BB', False)).reshape(molecule.n_orbitals, molecule.n_orbitals,
                                  molecule.n_orbitals, molecule.n_orbitals)

        # Get overall RDMs.
        fci_one_rdm, fci_two_rdm = unpack_spatial_rdm(
            fci_one_rdm_a, fci_one_rdm_b,
            fci_two_rdm_aa, fci_two_rdm_ab, fci_two_rdm_bb)

        # Store 1-RDM in molecule file, 2-RDM separately in other file.
        molecule.fci_one_rdm = fci_one_rdm
        molecule.fci_two_rdm = fci_two_rdm
        molecule.save()


# Perform coupled cluster singles and doubles (CCSD) calculation.
if True:
    set qc_module ccenergy
    try:
        ccsd_energy = energy('ccsd')
        if False:
            print('CCSD energy for {} ({} electrons) is {}.'.format(
                molecule.name, molecule.n_electrons, ccsd_energy))
    except:
        if False:
            print('WARNING: CCSD calculation failed.')
        else:
            raise
    else:
        molecule.ccsd_energy = ccsd_energy

        # Merge CC amplitudes into molecule by parsing
        psi_filename = outfile_name()
        single_cc_amplitudes, double_cc_amplitudes = (
            parse_psi4_ccsd_amplitudes(
                2 * molecule.n_orbitals,
                molecule.get_n_alpha_electrons(),
                molecule.get_n_beta_electrons(),
                psi_filename))

        molecule.ccsd_single_amps = single_cc_amplitudes
        molecule.ccsd_double_amps = double_cc_amplitudes
        molecule.save()
--------------------------------------------------------------------------

  Memory set to   7.451 GiB by Python driver.

*** tstart() called on trurls-machine
*** at Wed Mar  4 12:37:06 2020

   => Loading Basis Set <=

    Name: STO-3G
    Role: ORBITAL
    Keyword: BASIS
    atoms 1   entry C          line    61 file /Users/teague/anaconda3/envs/gen_env/share/psi4/basis/sto-3g.gbs 
    atoms 2-5 entry H          line    19 file /Users/teague/anaconda3/envs/gen_env/share/psi4/basis/sto-3g.gbs 


         ---------------------------------------------------------
                                   SCF
               by Justin Turney, Rob Parrish, Andy Simmonett
                          and Daniel G. A. Smith
                              RHF Reference
                        1 Threads,   7629 MiB Core
         ---------------------------------------------------------

  ==> Geometry <==

    Molecular point group: c1
    Full point group: C1

    Geometry (in Angstrom), charge = 0, multiplicity = 1:

       Center              X                  Y                   Z               Mass       
    ------------   -----------------  -----------------  -----------------  -----------------
         C            0.000006286608    -0.000006286608     0.000000000000    12.000000000000
         H            0.554106286608     0.799593713392     0.496500000000     1.007825032230
         H            0.683306286608    -0.813406286608    -0.253600000000     1.007825032230
         H           -0.778193713392    -0.373506286608     0.669200000000     1.007825032230
         H           -0.459293713392     0.387393713392    -0.912100000000     1.007825032230

  Running in c1 symmetry.

  Rotational constants: A =      5.25828  B =      5.25823  C =      5.25809 [cm^-1]
  Rotational constants: A = 157639.23754  B = 157637.72147  C = 157633.44196 [MHz]
  Nuclear repulsion =   13.408305419386577

  Charge       = 0
  Multiplicity = 1
  Electrons    = 10
  Nalpha       = 5
  Nbeta        = 5

  ==> Algorithm <==

  SCF Algorithm Type is PK.
  DIIS enabled.
  MOM disabled.
  Fractional occupation disabled.
  Guess Type is SAD.
  Energy threshold   = 1.00e-06
  Density threshold  = 1.00e-06
  Integral threshold = 0.00e+00

  ==> Primary Basis <==

  Basis Set: STO-3G
    Blend: STO-3G
    Number of shells: 7
    Number of basis function: 9
    Number of Cartesian functions: 9
    Spherical Harmonics?: true
    Max angular momentum: 1

  ==> Pre-Iterations <==

   -------------------------------------------------------
    Irrep   Nso     Nmo     Nalpha   Nbeta   Ndocc  Nsocc
   -------------------------------------------------------
     A          9       9       0       0       0       0
   -------------------------------------------------------
    Total       9       9       5       5       5       0
   -------------------------------------------------------

  ==> Integral Setup <==

  Using in-core PK algorithm.
   Calculation information:
      Number of atoms:                   5
      Number of AO shells:               7
      Number of primitives:             21
      Number of atomic orbitals:         9
      Number of basis functions:         9

      Integral cutoff                 1.00e-12
      Number of threads:                 1

  Performing in-core PK
  Using 2070 doubles for integral storage.
  We computed 406 shell quartets total.
  Whereas there are 406 unique shell quartets.

  ==> DiskJK: Disk-Based J/K Matrices <==

    J tasked:                  Yes
    K tasked:                  Yes
    wK tasked:                  No
    Memory [MiB]:             5722
    Schwarz Cutoff:          1E-12

    OpenMP threads:              1

  Minimum eigenvalue in the overlap matrix is 2.2207238886E-01.
  Using Symmetric Orthogonalization.

  SCF Guess: Superposition of Atomic Densities via on-the-fly atomic UHF.

  ==> Iterations <==

                        Total Energy        Delta E     RMS |[F,P]|

   @RHF iter SAD:   -38.44250109686313   -3.84425e+01   0.00000e+00 
   @RHF iter   1:   -39.72538807134063   -1.28289e+00   4.63432e-03 DIIS
   @RHF iter   2:   -39.72651394001908   -1.12587e-03   9.61821e-04 DIIS
   @RHF iter   3:   -39.72657924180802   -6.53018e-05   2.13033e-04 DIIS
   @RHF iter   4:   -39.72658171178092   -2.46997e-06   1.22456e-06 DIIS
   @RHF iter   5:   -39.72658171182059   -3.96696e-11   5.93170e-09 DIIS
  Energy and wave function converged.


  ==> Post-Iterations <==

    Orbital Energies [Eh]
    ---------------------

    Doubly Occupied:                                                      

       1A    -11.030494     2A     -0.907355     3A     -0.516891  
       4A     -0.516869     5A     -0.516864  

    Virtual:                                                              

       6A      0.711052     7A      0.711065     8A      0.711115  
       9A      0.747192  

    Final Occupation by Irrep:
              A 
    DOCC [     5 ]

  @RHF Final Energy:   -39.72658171182059

   => Energetics <=

    Nuclear Repulsion Energy =             13.4083054193865774
    One-Electron Energy =                 -79.2928274558682347
    Two-Electron Energy =                  26.1579403246610624
    Total Energy =                        -39.7265817118205931

Computation Completed


Properties will be evaluated at   0.000000,   0.000000,   0.000000 [a0]

Properties computed using the SCF density matrix

  Nuclear Dipole Moment: [e a0]
     X:    -0.0001      Y:     0.0001      Z:     0.0000

  Electronic Dipole Moment: [e a0]
     X:     0.0001      Y:    -0.0001      Z:     0.0000

  Dipole Moment: [e a0]
     X:    -0.0000      Y:     0.0000      Z:     0.0000     Total:     0.0000

  Dipole Moment: [D]
     X:    -0.0000      Y:     0.0000      Z:     0.0000     Total:     0.0000


*** tstop() called on trurls-machine at Wed Mar  4 12:37:06 2020
Module time:
	user time   =       0.22 seconds =       0.00 minutes
	system time =       0.02 seconds =       0.00 minutes
	total time  =          0 seconds =       0.00 minutes
Total time:
	user time   =       0.22 seconds =       0.00 minutes
	system time =       0.02 seconds =       0.00 minutes
	total time  =          0 seconds =       0.00 minutes

*** tstart() called on trurls-machine
*** at Wed Mar  4 12:37:07 2020

   => Loading Basis Set <=

    Name: STO-3G
    Role: ORBITAL
    Keyword: BASIS
    atoms 1   entry C          line    61 file /Users/teague/anaconda3/envs/gen_env/share/psi4/basis/sto-3g.gbs 
    atoms 2-5 entry H          line    19 file /Users/teague/anaconda3/envs/gen_env/share/psi4/basis/sto-3g.gbs 


         ---------------------------------------------------------
                                   SCF
               by Justin Turney, Rob Parrish, Andy Simmonett
                          and Daniel G. A. Smith
                              RHF Reference
                        1 Threads,   7629 MiB Core
         ---------------------------------------------------------

  ==> Geometry <==

    Molecular point group: c1
    Full point group: C1

    Geometry (in Angstrom), charge = 0, multiplicity = 1:

       Center              X                  Y                   Z               Mass       
    ------------   -----------------  -----------------  -----------------  -----------------
         C            0.000006286608    -0.000006286608     0.000000000000    12.000000000000
         H            0.554106286608     0.799593713392     0.496500000000     1.007825032230
         H            0.683306286608    -0.813406286608    -0.253600000000     1.007825032230
         H           -0.778193713392    -0.373506286608     0.669200000000     1.007825032230
         H           -0.459293713392     0.387393713392    -0.912100000000     1.007825032230

  Running in c1 symmetry.

  Rotational constants: A =      5.25828  B =      5.25823  C =      5.25809 [cm^-1]
  Rotational constants: A = 157639.23754  B = 157637.72147  C = 157633.44196 [MHz]
  Nuclear repulsion =   13.408305419386577

  Charge       = 0
  Multiplicity = 1
  Electrons    = 10
  Nalpha       = 5
  Nbeta        = 5

  ==> Algorithm <==

  SCF Algorithm Type is PK.
  DIIS enabled.
  MOM disabled.
  Fractional occupation disabled.
  Guess Type is SAD.
  Energy threshold   = 1.00e-06
  Density threshold  = 1.00e-06
  Integral threshold = 0.00e+00

  ==> Primary Basis <==

  Basis Set: STO-3G
    Blend: STO-3G
    Number of shells: 7
    Number of basis function: 9
    Number of Cartesian functions: 9
    Spherical Harmonics?: true
    Max angular momentum: 1

  ==> Pre-Iterations <==

   -------------------------------------------------------
    Irrep   Nso     Nmo     Nalpha   Nbeta   Ndocc  Nsocc
   -------------------------------------------------------
     A          9       9       0       0       0       0
   -------------------------------------------------------
    Total       9       9       5       5       5       0
   -------------------------------------------------------

  ==> Integral Setup <==

  Using in-core PK algorithm.
   Calculation information:
      Number of atoms:                   5
      Number of AO shells:               7
      Number of primitives:             21
      Number of atomic orbitals:         9
      Number of basis functions:         9

      Integral cutoff                 1.00e-12
      Number of threads:                 1

  Performing in-core PK
  Using 2070 doubles for integral storage.
  We computed 406 shell quartets total.
  Whereas there are 406 unique shell quartets.

  ==> DiskJK: Disk-Based J/K Matrices <==

    J tasked:                  Yes
    K tasked:                  Yes
    wK tasked:                  No
    Memory [MiB]:             5722
    Schwarz Cutoff:          1E-12

    OpenMP threads:              1

  Minimum eigenvalue in the overlap matrix is 2.2207238886E-01.
  Using Symmetric Orthogonalization.

  SCF Guess: Superposition of Atomic Densities via on-the-fly atomic UHF.

  ==> Iterations <==

                        Total Energy        Delta E     RMS |[F,P]|

   @RHF iter SAD:   -38.44250109686311   -3.84425e+01   0.00000e+00 
   @RHF iter   1:   -39.72538807134063   -1.28289e+00   4.63432e-03 DIIS
   @RHF iter   2:   -39.72651394001909   -1.12587e-03   9.61821e-04 DIIS
   @RHF iter   3:   -39.72657924180796   -6.53018e-05   2.13033e-04 DIIS
   @RHF iter   4:   -39.72658171178088   -2.46997e-06   1.22456e-06 DIIS
   @RHF iter   5:   -39.72658171182056   -3.96838e-11   5.93170e-09 DIIS
  Energy and wave function converged.


  ==> Post-Iterations <==

    Orbital Energies [Eh]
    ---------------------

    Doubly Occupied:                                                      

       1A    -11.030494     2A     -0.907355     3A     -0.516891  
       4A     -0.516869     5A     -0.516864  

    Virtual:                                                              

       6A      0.711052     7A      0.711065     8A      0.711115  
       9A      0.747192  

    Final Occupation by Irrep:
              A 
    DOCC [     5 ]

  @RHF Final Energy:   -39.72658171182056

   => Energetics <=

    Nuclear Repulsion Energy =             13.4083054193865774
    One-Electron Energy =                 -79.2928274558681352
    Two-Electron Energy =                  26.1579403246609914
    Total Energy =                        -39.7265817118205646

Computation Completed


Properties will be evaluated at   0.000000,   0.000000,   0.000000 [a0]

Properties computed using the SCF density matrix

  Nuclear Dipole Moment: [e a0]
     X:    -0.0001      Y:     0.0001      Z:     0.0000

  Electronic Dipole Moment: [e a0]
     X:     0.0001      Y:    -0.0001      Z:     0.0000

  Dipole Moment: [e a0]
     X:    -0.0000      Y:     0.0000      Z:     0.0000     Total:     0.0000

  Dipole Moment: [D]
     X:    -0.0000      Y:     0.0000      Z:     0.0000     Total:     0.0000


*** tstop() called on trurls-machine at Wed Mar  4 12:37:07 2020
Module time:
	user time   =       0.20 seconds =       0.00 minutes
	system time =       0.01 seconds =       0.00 minutes
	total time  =          0 seconds =       0.00 minutes
Total time:
	user time   =       0.49 seconds =       0.01 minutes
	system time =       0.03 seconds =       0.00 minutes
	total time  =          1 seconds =       0.02 minutes

*** tstart() called on trurls-machine
*** at Wed Mar  4 12:37:07 2020


  //>>>>>>>>>>>>>>>>>>>>>>>>>>>>>>>>>>>//
  //               DFMP2               //
  //<<<<<<<<<<<<<<<<<<<<<<<<<<<<<<<<<<<//

   => Loading Basis Set <=

    Name: (STO-3G AUX)
    Role: RIFIT
    Keyword: DF_BASIS_MP2
    atoms 1   entry C          line   270 file /Users/teague/anaconda3/envs/gen_env/share/psi4/basis/def2-qzvpp-ri.gbs 
    atoms 2-5 entry H          line    24 file /Users/teague/anaconda3/envs/gen_env/share/psi4/basis/def2-qzvpp-ri.gbs 

	 --------------------------------------------------------
	                          DF-MP2                         
	      2nd-Order Density-Fitted Moller-Plesset Theory     
	              RMP2 Wavefunction,   1 Threads             
	                                                         
	        Rob Parrish, Justin Turney, Andy Simmonett,      
	           Ed Hohenstein, and C. David Sherrill          
	 --------------------------------------------------------

   => Auxiliary Basis Set <=

  Basis Set: (STO-3G AUX)
    Blend: DEF2-QZVPP-RI
    Number of shells: 97
    Number of basis function: 365
    Number of Cartesian functions: 475
    Spherical Harmonics?: true
    Max angular momentum: 5

	 --------------------------------------------------------
	                 NBF =     9, NAUX =   365
	 --------------------------------------------------------
	   CLASS    FOCC     OCC    AOCC    AVIR     VIR    FVIR
	   PAIRS       0       5       5       4       4       0
	 --------------------------------------------------------

	-----------------------------------------------------------
	 ==================> DF-MP2 Energies <==================== 
	-----------------------------------------------------------
	 Reference Energy          =     -39.7265817118205646 [Eh]
	 Singles Energy            =      -0.0000000000000000 [Eh]
	 Same-Spin Energy          =      -0.0030453327155644 [Eh]
	 Opposite-Spin Energy      =      -0.0537459316820823 [Eh]
	 Correlation Energy        =      -0.0567912643976467 [Eh]
	 Total Energy              =     -39.7833729762182102 [Eh]
	-----------------------------------------------------------
	 ================> DF-SCS-MP2 Energies <================== 
	-----------------------------------------------------------
	 SCS Same-Spin Scale       =       0.3333333333333333 [-]
	 SCS Opposite-Spin Scale   =       1.2000000000000000 [-]
	 SCS Same-Spin Energy      =      -0.0010151109051881 [Eh]
	 SCS Opposite-Spin Energy  =      -0.0644951180184988 [Eh]
	 SCS Correlation Energy    =      -0.0655102289236869 [Eh]
	 SCS Total Energy          =     -39.7920919407442497 [Eh]
	-----------------------------------------------------------


*** tstop() called on trurls-machine at Wed Mar  4 12:37:07 2020
Module time:
	user time   =       0.13 seconds =       0.00 minutes
	system time =       0.00 seconds =       0.00 minutes
	total time  =          0 seconds =       0.00 minutes
Total time:
	user time   =       0.62 seconds =       0.01 minutes
	system time =       0.03 seconds =       0.00 minutes
	total time  =          1 seconds =       0.02 minutes

*** tstart() called on trurls-machine
*** at Wed Mar  4 12:37:07 2020

   => Loading Basis Set <=

    Name: STO-3G
    Role: ORBITAL
    Keyword: BASIS
    atoms 1   entry C          line    61 file /Users/teague/anaconda3/envs/gen_env/share/psi4/basis/sto-3g.gbs 
    atoms 2-5 entry H          line    19 file /Users/teague/anaconda3/envs/gen_env/share/psi4/basis/sto-3g.gbs 


         ---------------------------------------------------------
                                   SCF
               by Justin Turney, Rob Parrish, Andy Simmonett
                          and Daniel G. A. Smith
                              RHF Reference
                        1 Threads,   7629 MiB Core
         ---------------------------------------------------------

  ==> Geometry <==

    Molecular point group: c1
    Full point group: C1

    Geometry (in Angstrom), charge = 0, multiplicity = 1:

       Center              X                  Y                   Z               Mass       
    ------------   -----------------  -----------------  -----------------  -----------------
         C            0.000006286608    -0.000006286608     0.000000000000    12.000000000000
         H            0.554106286608     0.799593713392     0.496500000000     1.007825032230
         H            0.683306286608    -0.813406286608    -0.253600000000     1.007825032230
         H           -0.778193713392    -0.373506286608     0.669200000000     1.007825032230
         H           -0.459293713392     0.387393713392    -0.912100000000     1.007825032230

  Running in c1 symmetry.

  Rotational constants: A =      5.25828  B =      5.25823  C =      5.25809 [cm^-1]
  Rotational constants: A = 157639.23754  B = 157637.72147  C = 157633.44196 [MHz]
  Nuclear repulsion =   13.408305419386577

  Charge       = 0
  Multiplicity = 1
  Electrons    = 10
  Nalpha       = 5
  Nbeta        = 5

  ==> Algorithm <==

  SCF Algorithm Type is PK.
  DIIS enabled.
  MOM disabled.
  Fractional occupation disabled.
  Guess Type is SAD.
  Energy threshold   = 1.00e-06
  Density threshold  = 1.00e-06
  Integral threshold = 0.00e+00

  ==> Primary Basis <==

  Basis Set: STO-3G
    Blend: STO-3G
    Number of shells: 7
    Number of basis function: 9
    Number of Cartesian functions: 9
    Spherical Harmonics?: true
    Max angular momentum: 1

  ==> Pre-Iterations <==

   -------------------------------------------------------
    Irrep   Nso     Nmo     Nalpha   Nbeta   Ndocc  Nsocc
   -------------------------------------------------------
     A          9       9       0       0       0       0
   -------------------------------------------------------
    Total       9       9       5       5       5       0
   -------------------------------------------------------

  ==> Integral Setup <==

  Using in-core PK algorithm.
   Calculation information:
      Number of atoms:                   5
      Number of AO shells:               7
      Number of primitives:             21
      Number of atomic orbitals:         9
      Number of basis functions:         9

      Integral cutoff                 1.00e-12
      Number of threads:                 1

  Performing in-core PK
  Using 2070 doubles for integral storage.
  We computed 406 shell quartets total.
  Whereas there are 406 unique shell quartets.

  ==> DiskJK: Disk-Based J/K Matrices <==

    J tasked:                  Yes
    K tasked:                  Yes
    wK tasked:                  No
    Memory [MiB]:             5722
    Schwarz Cutoff:          1E-12

    OpenMP threads:              1

  Minimum eigenvalue in the overlap matrix is 2.2207238886E-01.
  Using Symmetric Orthogonalization.

  SCF Guess: Superposition of Atomic Densities via on-the-fly atomic UHF.

  ==> Iterations <==

                        Total Energy        Delta E     RMS |[F,P]|

   @RHF iter SAD:   -38.44250109686311   -3.84425e+01   0.00000e+00 
   @RHF iter   1:   -39.72538807134063   -1.28289e+00   4.63432e-03 DIIS
   @RHF iter   2:   -39.72651394001909   -1.12587e-03   9.61821e-04 DIIS
   @RHF iter   3:   -39.72657924180796   -6.53018e-05   2.13033e-04 DIIS
   @RHF iter   4:   -39.72658171178088   -2.46997e-06   1.22456e-06 DIIS
   @RHF iter   5:   -39.72658171182056   -3.96838e-11   5.93170e-09 DIIS
  Energy and wave function converged.


  ==> Post-Iterations <==

    Orbital Energies [Eh]
    ---------------------

    Doubly Occupied:                                                      

       1A    -11.030494     2A     -0.907355     3A     -0.516891  
       4A     -0.516869     5A     -0.516864  

    Virtual:                                                              

       6A      0.711052     7A      0.711065     8A      0.711115  
       9A      0.747192  

    Final Occupation by Irrep:
              A 
    DOCC [     5 ]

  @RHF Final Energy:   -39.72658171182056

   => Energetics <=

    Nuclear Repulsion Energy =             13.4083054193865774
    One-Electron Energy =                 -79.2928274558681352
    Two-Electron Energy =                  26.1579403246609914
    Total Energy =                        -39.7265817118205646

Computation Completed


Properties will be evaluated at   0.000000,   0.000000,   0.000000 [a0]

Properties computed using the SCF density matrix

  Nuclear Dipole Moment: [e a0]
     X:    -0.0001      Y:     0.0001      Z:     0.0000

  Electronic Dipole Moment: [e a0]
     X:     0.0001      Y:    -0.0001      Z:     0.0000

  Dipole Moment: [e a0]
     X:    -0.0000      Y:     0.0000      Z:     0.0000     Total:     0.0000

  Dipole Moment: [D]
     X:    -0.0000      Y:     0.0000      Z:     0.0000     Total:     0.0000


*** tstop() called on trurls-machine at Wed Mar  4 12:37:07 2020
Module time:
	user time   =       0.20 seconds =       0.00 minutes
	system time =       0.01 seconds =       0.00 minutes
	total time  =          0 seconds =       0.00 minutes
Total time:
	user time   =       0.87 seconds =       0.01 minutes
	system time =       0.04 seconds =       0.00 minutes
	total time  =          1 seconds =       0.02 minutes
 MINTS: Wrapper to libmints.
   by Justin Turney

   Calculation information:
      Number of threads:                 1
      Number of atoms:                   5
      Number of AO shells:               7
      Number of SO shells:               7
      Number of primitives:             21
      Number of atomic orbitals:         9
      Number of basis functions:         9

      Number of irreps:                  1
      Integral cutoff                 0.00e+00
      Number of functions per irrep: [   9 ]

 OEINTS: Overlap, kinetic, potential, dipole, and quadrupole integrals
         stored in file 35.

      Computing two-electron integrals...done
      Computed 959 non-zero two-electron integrals.
        Stored in file 33.


         ---------------------------------------------------------
                          Configuration Interaction
                            (a 'D E T C I' module)

                 C. David Sherrill, Daniel G. A. Smith, and
                              Matt L. Leininger
         ---------------------------------------------------------


   ==> Parameters <==

    EX LEVEL       =        2      H0 BLOCKSIZE  =     1000
    VAL EX LEVEL   =        0      H0 GUESS SIZE =     1000
    H0COUPLINGSIZE =        0      H0 COUPLING   =       NO
    MAXITER        =       24      NUM PRINT     =       20
    NUM ROOTS      =        1      ICORE         =        1
    PRINT LVL      =        1      FCI           =       NO
    R CONV         = 1.00e-06      MIXED         =      YES
    E CONV         = 1.00e-06      MIXED4        =      YES
    R4S            =       NO      REPL OTF      =       NO
    DIAG METHOD    =      SEM      FOLLOW ROOT   =        0
    PRECONDITIONER = DAVIDSON      UPDATE        = DAVIDSON
    S              =   0.0000      Ms0           =      YES
    GUESS VECTOR   =  H0BLOCK      OPENTYPE      =     NONE
    COLLAPSE SIZE  =        1      HD AVG        = EVANGELISTI
    MAX NUM VECS   =       25      REF SYM       =     AUTO
    IOPEN        =       NO

    EX ALLOW       =  1  1 
    STATE AVERAGE  =  0(1.00) 

   ==> CI Orbital and Space information <==

    RAS1 LVL      =        4      A RAS3 MAX    =        2
    RAS1 MIN      =        8      B RAS3 MAX    =        2
    A RAS1 LVL    =        4      RAS4 LVL      =        9
    A RAS1 MIN    =        3      A RAS4 MAX    =        0
    A RAS1 MAX    =        5      B RAS4 MAX    =        0
    B RAS1 LVL    =        4      RAS4 MAX      =        0
    B RAS1 MIN    =        3      A RAS34 MAX   =        2
    B RAS1 MAX    =        5      B RAS34 MAX   =        2
    RAS3 LVL      =        5      RAS34 MAX     =        2
    RAS3 MAX      =        2
   ------------------------------------
               Space    Total     A
   ------------------------------------
                 Nso        9     9
                 Nmo        9     9
               Ndocc        5     5
               Nsocc        0     0
   ------------------------------------
              CI Spaces
   ------------------------------------
        Dropped DOCC        0     0
                RAS1        5     5
                RAS2        0     0
                RAS3        4     4
                RAS4        0     0
      Active (total)        9     9
        Dropped UOCC        0     0
   ------------------------------------

   ==> Setting up CI strings <==

    There are 81 alpha and 81 beta strings
    The CI space requires 561 (5.61E+02) determinants and 6 blocks

   ==> Transforming CI integrals <==

	Presorting SO-basis two-electron integrals.
	Sorting File: SO Ints (nn|nn) nbuckets = 1
	Transforming the one-electron integrals and constructing Fock matrices
	Starting first half-transformation.
	Sorting half-transformed integrals.
	First half integral transformation complete.
	Starting second half-transformation.
	Two-electron integral transformation complete.

   ==> Starting CI iterations <==

    H0 Block Eigenvalue = -39.80354728

    Simultaneous Expansion Method (Block Davidson Method)
    Using 1 initial trial vectors

     Iter   Root       Total Energy       Delta E      C RMS

   @CI  0:     0    -39.803547283692   -5.3212E+01   7.2011E-14  
    Warning: Norm of correction (root 0) is < 1.0E-13
   @CI  1:     0    -39.803547283692   0.0000E+00   1.6327E-13 c

   ==> Energetics <==

    SCF energy =          -39.726581711820565
    Total CI energy =     -39.803547283692183

   ==> CISD root 0 information <==

    CISD Root 0 energy =   -39.803547283692183

   The 20 most important determinants:

    *   1   -0.979976  (    0,    0)  1AX 2AX 3AX 4AX 5AX 
    *   2    0.072250  (   13,   13)  1AX 2AX 4AX 5AX 8AX 
    *   3    0.069459  (    7,    7)  1AX 2AX 3AX 5AX 7AX 
    *   4    0.067601  (    1,    1)  1AX 2AX 3AX 4AX 6AX 
    *   5   -0.031629  (   13,   19)  1AX 2AA 3AB 4AX 5AX 8AA 9AB 
    *   6   -0.031629  (   19,   13)  1AX 2AB 3AA 4AX 5AX 8AB 9AA 
    *   7    0.030966  (    7,   19)  1AX 2AA 3AX 4AB 5AX 7AA 9AB 
    *   8    0.030966  (   19,    7)  1AX 2AB 3AX 4AA 5AX 7AB 9AA 
    *   9   -0.030966  (    1,   19)  1AX 2AA 3AX 4AX 5AB 6AA 9AB 
    *  10   -0.030966  (   19,    1)  1AX 2AB 3AX 4AX 5AA 6AB 9AA 
    *  11    0.028424  (   19,   19)  1AX 3AX 4AX 5AX 9AX 
    *  12    0.024949  (   18,   18)  1AX 2AX 4AX 5AX 9AX 
    *  13    0.024932  (   17,   17)  1AX 2AX 3AX 5AX 9AX 
    *  14    0.024930  (   16,   16)  1AX 2AX 3AX 4AX 9AX 
    *  15   -0.024489  (   14,   18)  1AX 2AB 3AA 4AX 5AX 8AA 9AB 
    *  16   -0.024489  (   18,   14)  1AX 2AA 3AB 4AX 5AX 8AB 9AA 
    *  17    0.023976  (    9,   17)  1AX 2AB 3AX 4AA 5AX 7AA 9AB 
    *  18    0.023976  (   17,    9)  1AX 2AA 3AX 4AB 5AX 7AB 9AA 
    *  19   -0.023975  (    4,   16)  1AX 2AB 3AX 4AX 5AA 6AA 9AB 
    *  20   -0.023975  (   16,    4)  1AX 2AA 3AX 4AX 5AB 6AB 9AA 

		 "A good bug is a dead bug" 

			 - Starship Troopers

		 "I didn't write FORTRAN.  That's the problem."

			 - Edward Valeev

*** tstart() called on trurls-machine
*** at Wed Mar  4 12:37:07 2020

   => Loading Basis Set <=

    Name: STO-3G
    Role: ORBITAL
    Keyword: BASIS
    atoms 1   entry C          line    61 file /Users/teague/anaconda3/envs/gen_env/share/psi4/basis/sto-3g.gbs 
    atoms 2-5 entry H          line    19 file /Users/teague/anaconda3/envs/gen_env/share/psi4/basis/sto-3g.gbs 


         ---------------------------------------------------------
                                   SCF
               by Justin Turney, Rob Parrish, Andy Simmonett
                          and Daniel G. A. Smith
                              RHF Reference
                        1 Threads,   7629 MiB Core
         ---------------------------------------------------------

  ==> Geometry <==

    Molecular point group: c1
    Full point group: C1

    Geometry (in Angstrom), charge = 0, multiplicity = 1:

       Center              X                  Y                   Z               Mass       
    ------------   -----------------  -----------------  -----------------  -----------------
         C            0.000006286608    -0.000006286608     0.000000000000    12.000000000000
         H            0.554106286608     0.799593713392     0.496500000000     1.007825032230
         H            0.683306286608    -0.813406286608    -0.253600000000     1.007825032230
         H           -0.778193713392    -0.373506286608     0.669200000000     1.007825032230
         H           -0.459293713392     0.387393713392    -0.912100000000     1.007825032230

  Running in c1 symmetry.

  Rotational constants: A =      5.25828  B =      5.25823  C =      5.25809 [cm^-1]
  Rotational constants: A = 157639.23754  B = 157637.72147  C = 157633.44196 [MHz]
  Nuclear repulsion =   13.408305419386577

  Charge       = 0
  Multiplicity = 1
  Electrons    = 10
  Nalpha       = 5
  Nbeta        = 5

  ==> Algorithm <==

  SCF Algorithm Type is PK.
  DIIS enabled.
  MOM disabled.
  Fractional occupation disabled.
  Guess Type is SAD.
  Energy threshold   = 1.00e-06
  Density threshold  = 1.00e-06
  Integral threshold = 0.00e+00

  ==> Primary Basis <==

  Basis Set: STO-3G
    Blend: STO-3G
    Number of shells: 7
    Number of basis function: 9
    Number of Cartesian functions: 9
    Spherical Harmonics?: true
    Max angular momentum: 1

  ==> Pre-Iterations <==

   -------------------------------------------------------
    Irrep   Nso     Nmo     Nalpha   Nbeta   Ndocc  Nsocc
   -------------------------------------------------------
     A          9       9       0       0       0       0
   -------------------------------------------------------
    Total       9       9       5       5       5       0
   -------------------------------------------------------

  ==> Integral Setup <==

  Using in-core PK algorithm.
   Calculation information:
      Number of atoms:                   5
      Number of AO shells:               7
      Number of primitives:             21
      Number of atomic orbitals:         9
      Number of basis functions:         9

      Integral cutoff                 1.00e-12
      Number of threads:                 1

  Performing in-core PK
  Using 2070 doubles for integral storage.
  We computed 406 shell quartets total.
  Whereas there are 406 unique shell quartets.

  ==> DiskJK: Disk-Based J/K Matrices <==

    J tasked:                  Yes
    K tasked:                  Yes
    wK tasked:                  No
    Memory [MiB]:             5722
    Schwarz Cutoff:          1E-12

    OpenMP threads:              1

  Minimum eigenvalue in the overlap matrix is 2.2207238886E-01.
  Using Symmetric Orthogonalization.

  SCF Guess: Superposition of Atomic Densities via on-the-fly atomic UHF.

  ==> Iterations <==

                        Total Energy        Delta E     RMS |[F,P]|

   @RHF iter SAD:   -38.44250109686313   -3.84425e+01   0.00000e+00 
   @RHF iter   1:   -39.72538807134063   -1.28289e+00   4.63432e-03 DIIS
   @RHF iter   2:   -39.72651394001906   -1.12587e-03   9.61821e-04 DIIS
   @RHF iter   3:   -39.72657924180798   -6.53018e-05   2.13033e-04 DIIS
   @RHF iter   4:   -39.72658171178094   -2.46997e-06   1.22456e-06 DIIS
   @RHF iter   5:   -39.72658171182056   -3.96270e-11   5.93170e-09 DIIS
  Energy and wave function converged.


  ==> Post-Iterations <==

    Orbital Energies [Eh]
    ---------------------

    Doubly Occupied:                                                      

       1A    -11.030494     2A     -0.907355     3A     -0.516891  
       4A     -0.516869     5A     -0.516864  

    Virtual:                                                              

       6A      0.711052     7A      0.711065     8A      0.711115  
       9A      0.747192  

    Final Occupation by Irrep:
              A 
    DOCC [     5 ]

  @RHF Final Energy:   -39.72658171182056

   => Energetics <=

    Nuclear Repulsion Energy =             13.4083054193865774
    One-Electron Energy =                 -79.2928274558681778
    Two-Electron Energy =                  26.1579403246610340
    Total Energy =                        -39.7265817118205646

Computation Completed


Properties will be evaluated at   0.000000,   0.000000,   0.000000 [a0]

Properties computed using the SCF density matrix

  Nuclear Dipole Moment: [e a0]
     X:    -0.0001      Y:     0.0001      Z:     0.0000

  Electronic Dipole Moment: [e a0]
     X:     0.0001      Y:    -0.0001      Z:     0.0000

  Dipole Moment: [e a0]
     X:    -0.0000      Y:     0.0000      Z:     0.0000     Total:     0.0000

  Dipole Moment: [D]
     X:    -0.0000      Y:     0.0000      Z:     0.0000     Total:     0.0000


*** tstop() called on trurls-machine at Wed Mar  4 12:37:08 2020
Module time:
	user time   =       0.20 seconds =       0.00 minutes
	system time =       0.01 seconds =       0.00 minutes
	total time  =          1 seconds =       0.02 minutes
Total time:
	user time   =       1.22 seconds =       0.02 minutes
	system time =       0.07 seconds =       0.00 minutes
	total time  =          2 seconds =       0.03 minutes
 MINTS: Wrapper to libmints.
   by Justin Turney

   Calculation information:
      Number of threads:                 1
      Number of atoms:                   5
      Number of AO shells:               7
      Number of SO shells:               7
      Number of primitives:             21
      Number of atomic orbitals:         9
      Number of basis functions:         9

      Number of irreps:                  1
      Integral cutoff                 0.00e+00
      Number of functions per irrep: [   9 ]

 OEINTS: Overlap, kinetic, potential, dipole, and quadrupole integrals
         stored in file 35.

      Computing two-electron integrals...done
      Computed 959 non-zero two-electron integrals.
        Stored in file 33.


         ---------------------------------------------------------
                          Configuration Interaction
                            (a 'D E T C I' module)

                 C. David Sherrill, Daniel G. A. Smith, and
                              Matt L. Leininger
         ---------------------------------------------------------


   ==> Parameters <==

    EX LEVEL       =       10      H0 BLOCKSIZE  =     1000
    VAL EX LEVEL   =        0      H0 GUESS SIZE =     1000
    H0COUPLINGSIZE =        0      H0 COUPLING   =       NO
    MAXITER        =       24      NUM PRINT     =       20
    NUM ROOTS      =        1      ICORE         =        1
    PRINT LVL      =        1      FCI           =      YES
    R CONV         = 1.00e-06      MIXED         =      YES
    E CONV         = 1.00e-06      MIXED4        =      YES
    R4S            =       NO      REPL OTF      =       NO
    DIAG METHOD    =      SEM      FOLLOW ROOT   =        0
    PRECONDITIONER = DAVIDSON      UPDATE        = DAVIDSON
    S              =   0.0000      Ms0           =      YES
    GUESS VECTOR   =  H0BLOCK      OPENTYPE      =     NONE
    COLLAPSE SIZE  =        1      HD AVG        = EVANGELISTI
    MAX NUM VECS   =       25      REF SYM       =     AUTO
    IOPEN        =       NO

    EX ALLOW       =  1  1  1  1  1  1  1  1  1  1 
    STATE AVERAGE  =  0(1.00) 

   ==> CI Orbital and Space information <==

   ------------------------------------
               Space    Total     A
   ------------------------------------
                 Nso        9     9
                 Nmo        9     9
               Ndocc        5     5
               Nsocc        0     0
   ------------------------------------
              CI Spaces
   ------------------------------------
        Dropped DOCC        0     0
              Active        9     9
        Dropped UOCC        0     0
   ------------------------------------

   ==> Setting up CI strings <==

    There are 126 alpha and 126 beta strings
    The CI space requires 15876 (1.59E+04) determinants and 1 blocks

   ==> Transforming CI integrals <==

	Presorting SO-basis two-electron integrals.
	Sorting File: SO Ints (nn|nn) nbuckets = 1
	Transforming the one-electron integrals and constructing Fock matrices
	Starting first half-transformation.
	Sorting half-transformed integrals.
	First half integral transformation complete.
	Starting second half-transformation.
	Two-electron integral transformation complete.

   ==> Starting CI iterations <==

    H0 Block Eigenvalue = -39.80323730

    Simultaneous Expansion Method (Block Davidson Method)
    Using 1 initial trial vectors

     Iter   Root       Total Energy       Delta E      C RMS

   @CI  0:     0    -39.803237300589   -5.3212E+01   1.2641E-01  
   @CI  1:     0    -39.806064353980   -2.8271E-03   3.3937E-02  
   @CI  2:     0    -39.806227233299   -1.6288E-04   1.3727E-02  
   @CI  3:     0    -39.806257045847   -2.9813E-05   4.4746E-03  
   @CI  4:     0    -39.806259112981   -2.0671E-06   1.0619E-03  
   @CI  5:     0    -39.806259241793   -1.2881E-07   2.2480E-04  
   @CI  6:     0    -39.806259248777   -6.9849E-09   6.8191E-05  
   @CI  7:     0    -39.806259249185   -4.0791E-10   1.3167E-05  
   @CI  8:     0    -39.806259249201   -1.5426E-11   1.9039E-06  
    Warning: Norm of correction (root 0) is < 1.0E-13
   @CI  9:     0    -39.806259249201   -4.1922E-13   4.4523E-07 c

   ==> Energetics <==

    SCF energy =          -39.726581711820565
    Total CI energy =     -39.806259249201247

   ==> FCI root 0 information <==

    FCI Root 0 energy =   -39.806259249201247

   The 20 most important determinants:

    *   1   -0.978177  (    0,    0)  1AX 2AX 3AX 4AX 5AX 
    *   2    0.074775  (   23,   23)  1AX 2AX 4AX 5AX 8AX 
    *   3    0.071883  (    7,    7)  1AX 2AX 3AX 5AX 7AX 
    *   4    0.069967  (    1,    1)  1AX 2AX 3AX 4AX 6AX 
    *   5   -0.032693  (   23,   59)  1AX 2AA 3AB 4AX 5AX 8AA 9AB 
    *   6   -0.032693  (   59,   23)  1AX 2AB 3AA 4AX 5AX 8AB 9AA 
    *   7    0.032008  (    7,   59)  1AX 2AA 3AX 4AB 5AX 7AA 9AB 
    *   8    0.032008  (   59,    7)  1AX 2AB 3AX 4AA 5AX 7AB 9AA 
    *   9   -0.032008  (    1,   59)  1AX 2AA 3AX 4AX 5AB 6AA 9AB 
    *  10   -0.032008  (   59,    1)  1AX 2AB 3AX 4AX 5AA 6AB 9AA 
    *  11    0.029103  (   59,   59)  1AX 3AX 4AX 5AX 9AX 
    *  12    0.025707  (   58,   58)  1AX 2AX 4AX 5AX 9AX 
    *  13    0.025689  (   57,   57)  1AX 2AX 3AX 5AX 9AX 
    *  14    0.025687  (   56,   56)  1AX 2AX 3AX 4AX 9AX 
    *  15   -0.025308  (   24,   58)  1AX 2AB 3AA 4AX 5AX 8AA 9AB 
    *  16   -0.025308  (   58,   24)  1AX 2AA 3AB 4AX 5AX 8AB 9AA 
    *  17    0.024778  (    9,   57)  1AX 2AB 3AX 4AA 5AX 7AA 9AB 
    *  18    0.024778  (   57,    9)  1AX 2AA 3AX 4AB 5AX 7AB 9AA 
    *  19   -0.024777  (    4,   56)  1AX 2AB 3AX 4AX 5AA 6AA 9AB 
    *  20   -0.024777  (   56,    4)  1AX 2AA 3AX 4AX 5AB 6AB 9AA 

		 "A good bug is a dead bug" 

			 - Starship Troopers

		 "I didn't write FORTRAN.  That's the problem."

			 - Edward Valeev

*** tstart() called on trurls-machine
*** at Wed Mar  4 12:37:08 2020

   => Loading Basis Set <=

    Name: STO-3G
    Role: ORBITAL
    Keyword: BASIS
    atoms 1   entry C          line    61 file /Users/teague/anaconda3/envs/gen_env/share/psi4/basis/sto-3g.gbs 
    atoms 2-5 entry H          line    19 file /Users/teague/anaconda3/envs/gen_env/share/psi4/basis/sto-3g.gbs 


         ---------------------------------------------------------
                                   SCF
               by Justin Turney, Rob Parrish, Andy Simmonett
                          and Daniel G. A. Smith
                              RHF Reference
                        1 Threads,   7629 MiB Core
         ---------------------------------------------------------

  ==> Geometry <==

    Molecular point group: c1
    Full point group: C1

    Geometry (in Angstrom), charge = 0, multiplicity = 1:

       Center              X                  Y                   Z               Mass       
    ------------   -----------------  -----------------  -----------------  -----------------
         C            0.000006286608    -0.000006286608     0.000000000000    12.000000000000
         H            0.554106286608     0.799593713392     0.496500000000     1.007825032230
         H            0.683306286608    -0.813406286608    -0.253600000000     1.007825032230
         H           -0.778193713392    -0.373506286608     0.669200000000     1.007825032230
         H           -0.459293713392     0.387393713392    -0.912100000000     1.007825032230

  Running in c1 symmetry.

  Rotational constants: A =      5.25828  B =      5.25823  C =      5.25809 [cm^-1]
  Rotational constants: A = 157639.23754  B = 157637.72147  C = 157633.44196 [MHz]
  Nuclear repulsion =   13.408305419386577

  Charge       = 0
  Multiplicity = 1
  Electrons    = 10
  Nalpha       = 5
  Nbeta        = 5

  ==> Algorithm <==

  SCF Algorithm Type is PK.
  DIIS enabled.
  MOM disabled.
  Fractional occupation disabled.
  Guess Type is SAD.
  Energy threshold   = 1.00e-06
  Density threshold  = 1.00e-06
  Integral threshold = 0.00e+00

  ==> Primary Basis <==

  Basis Set: STO-3G
    Blend: STO-3G
    Number of shells: 7
    Number of basis function: 9
    Number of Cartesian functions: 9
    Spherical Harmonics?: true
    Max angular momentum: 1

  ==> Pre-Iterations <==

   -------------------------------------------------------
    Irrep   Nso     Nmo     Nalpha   Nbeta   Ndocc  Nsocc
   -------------------------------------------------------
     A          9       9       0       0       0       0
   -------------------------------------------------------
    Total       9       9       5       5       5       0
   -------------------------------------------------------

  ==> Integral Setup <==

  Using in-core PK algorithm.
   Calculation information:
      Number of atoms:                   5
      Number of AO shells:               7
      Number of primitives:             21
      Number of atomic orbitals:         9
      Number of basis functions:         9

      Integral cutoff                 1.00e-12
      Number of threads:                 1

  Performing in-core PK
  Using 2070 doubles for integral storage.
  We computed 406 shell quartets total.
  Whereas there are 406 unique shell quartets.

  ==> DiskJK: Disk-Based J/K Matrices <==

    J tasked:                  Yes
    K tasked:                  Yes
    wK tasked:                  No
    Memory [MiB]:             5722
    Schwarz Cutoff:          1E-12

    OpenMP threads:              1

  Minimum eigenvalue in the overlap matrix is 2.2207238886E-01.
  Using Symmetric Orthogonalization.

  SCF Guess: Superposition of Atomic Densities via on-the-fly atomic UHF.

  ==> Iterations <==

                        Total Energy        Delta E     RMS |[F,P]|

   @RHF iter SAD:   -38.44250109686311   -3.84425e+01   0.00000e+00 
   @RHF iter   1:   -39.72538807134063   -1.28289e+00   4.63432e-03 DIIS
   @RHF iter   2:   -39.72651394001909   -1.12587e-03   9.61821e-04 DIIS
   @RHF iter   3:   -39.72657924180796   -6.53018e-05   2.13033e-04 DIIS
   @RHF iter   4:   -39.72658171178088   -2.46997e-06   1.22456e-06 DIIS
   @RHF iter   5:   -39.72658171182056   -3.96838e-11   5.93170e-09 DIIS
  Energy and wave function converged.


  ==> Post-Iterations <==

    Orbital Energies [Eh]
    ---------------------

    Doubly Occupied:                                                      

       1A    -11.030494     2A     -0.907355     3A     -0.516891  
       4A     -0.516869     5A     -0.516864  

    Virtual:                                                              

       6A      0.711052     7A      0.711065     8A      0.711115  
       9A      0.747192  

    Final Occupation by Irrep:
              A 
    DOCC [     5 ]

  @RHF Final Energy:   -39.72658171182056

   => Energetics <=

    Nuclear Repulsion Energy =             13.4083054193865774
    One-Electron Energy =                 -79.2928274558681352
    Two-Electron Energy =                  26.1579403246609914
    Total Energy =                        -39.7265817118205646

Computation Completed


Properties will be evaluated at   0.000000,   0.000000,   0.000000 [a0]

Properties computed using the SCF density matrix

  Nuclear Dipole Moment: [e a0]
     X:    -0.0001      Y:     0.0001      Z:     0.0000

  Electronic Dipole Moment: [e a0]
     X:     0.0001      Y:    -0.0001      Z:     0.0000

  Dipole Moment: [e a0]
     X:    -0.0000      Y:     0.0000      Z:     0.0000     Total:     0.0000

  Dipole Moment: [D]
     X:    -0.0000      Y:     0.0000      Z:     0.0000     Total:     0.0000


*** tstop() called on trurls-machine at Wed Mar  4 12:37:08 2020
Module time:
	user time   =       0.20 seconds =       0.00 minutes
	system time =       0.01 seconds =       0.00 minutes
	total time  =          0 seconds =       0.00 minutes
Total time:
	user time   =       2.03 seconds =       0.03 minutes
	system time =       0.12 seconds =       0.00 minutes
	total time  =          2 seconds =       0.03 minutes
 MINTS: Wrapper to libmints.
   by Justin Turney

   Calculation information:
      Number of threads:                 1
      Number of atoms:                   5
      Number of AO shells:               7
      Number of SO shells:               7
      Number of primitives:             21
      Number of atomic orbitals:         9
      Number of basis functions:         9

      Number of irreps:                  1
      Integral cutoff                 0.00e+00
      Number of functions per irrep: [   9 ]

 OEINTS: Overlap, kinetic, potential, dipole, and quadrupole integrals
         stored in file 35.

      Computing two-electron integrals...done
      Computed 959 non-zero two-electron integrals.
        Stored in file 33.


*** tstart() called on trurls-machine
*** at Wed Mar  4 12:37:08 2020


	Wfn Parameters:
	--------------------
	Wavefunction         = CCSD
	Number of irreps     = 1
	Number of MOs        = 9
	Number of active MOs = 9
	AO-Basis             = NONE
	Semicanonical        = false
	Reference            = RHF
	Print Level          = 1

	IRREP	# MOs	# FZDC	# DOCC	# SOCC	# VIRT	# FZVR
	-----	-----	------	------	------	------	------
	 A	   9	    0	    5	    0	    4	    0
	Transforming integrals...
	IWL integrals will be deleted.
	(OO|OO)...
	Presorting SO-basis two-electron integrals.
	Sorting File: SO Ints (nn|nn) nbuckets = 1
	Transforming the one-electron integrals and constructing Fock matrices
	Starting first half-transformation.
	Sorting half-transformed integrals.
	First half integral transformation complete.
	Starting second half-transformation.
	Two-electron integral transformation complete.
	(OO|OV)...
	Starting second half-transformation.
	Two-electron integral transformation complete.
	(OO|VV)...
	Starting second half-transformation.
	Two-electron integral transformation complete.
	(OV|OO)...
	Starting first half-transformation.
	Sorting half-transformed integrals.
	First half integral transformation complete.
	Starting second half-transformation.
	Two-electron integral transformation complete.
	(OV|OV)...
	Starting second half-transformation.
	Two-electron integral transformation complete.
	(OV|VV)...
	Starting second half-transformation.
	Two-electron integral transformation complete.
	(VV|OO)...
	Starting first half-transformation.
	Sorting half-transformed integrals.
	First half integral transformation complete.
	Starting second half-transformation.
	Two-electron integral transformation complete.
	(VV|OV)...
	Starting second half-transformation.
	Two-electron integral transformation complete.
	(VV|VV)...
	Starting second half-transformation.
	Two-electron integral transformation complete.
	Frozen core energy     =      0.00000000000000

	Size of irrep 0 of <ab|cd> integrals:      0.000 (MW) /      0.002 (MB)
	Total:                                     0.000 (MW) /      0.002 (MB)

	Size of irrep 0 of <ia|bc> integrals:      0.000 (MW) /      0.003 (MB)
	Total:                                     0.000 (MW) /      0.003 (MB)

	Size of irrep 0 of tijab amplitudes:       0.000 (MW) /      0.003 (MB)
	Total:                                     0.000 (MW) /      0.003 (MB)

	Nuclear Rep. energy          =     13.40830541938658
	SCF energy                   =    -39.72658171182056
	One-electron energy          =    -79.29282729631122
	Two-electron energy          =     26.15794016510408
	Reference energy             =    -39.72658171182056

*** tstop() called on trurls-machine at Wed Mar  4 12:37:08 2020
Module time:
	user time   =       0.00 seconds =       0.00 minutes
	system time =       0.03 seconds =       0.00 minutes
	total time  =          0 seconds =       0.00 minutes
Total time:
	user time   =       2.04 seconds =       0.03 minutes
	system time =       0.15 seconds =       0.00 minutes
	total time  =          2 seconds =       0.03 minutes
            **************************
            *                        *
            *        CCENERGY        *
            *                        *
            **************************

    Nuclear Rep. energy (wfn)     =   13.408305419386577
    SCF energy          (wfn)     =  -39.726581711820565
    Reference energy    (file100) =  -39.726581711820558

    Input parameters:
    -----------------
    Wave function   =     CCSD
    Reference wfn   =     RHF
    Brueckner       =     No
    Memory (Mbytes) =     8000.0
    Maxiter         =   1000000
    R_Convergence   =     1.0e-06
    E_Convergence   =     1.0e-06
    Restart         =     Yes
    DIIS            =     Yes
    AO Basis        =     NONE
    ABCD            =     NEW
    Cache Level     =     2
    Cache Type      =     LOW
    Print Level     =     1
    Num. of threads =     1
    # Amps to Print =     1000000
    Print MP2 Amps? =     No
    Analyze T2 Amps =     No
    Print Pair Ener =     No
    Local CC        =     No
    SCS-MP2         =     False
    SCSN-MP2        =     False
    SCS-CCSD        =     False

MP2 correlation energy -0.0567923765030342
                Solving CC Amplitude Equations
                ------------------------------
  Iter             Energy              RMS        T1Diag      D1Diag    New D1Diag    D2Diag
  ----     ---------------------    ---------   ----------  ----------  ----------   --------
     0        -0.056792376503034    0.000e+00    0.000000    0.000000    0.000000    0.074835
     1        -0.071692973713972    4.325e-02    0.000160    0.000265    0.000265    0.097017
     2        -0.079131335909611    1.576e-02    0.000267    0.000441    0.000441    0.109181
     3        -0.079410781080103    1.879e-03    0.000329    0.000663    0.000663    0.109947
     4        -0.079442883782486    4.927e-04    0.000365    0.000740    0.000740    0.110011
     5        -0.079439549907069    2.561e-05    0.000368    0.000747    0.000747    0.110006
     6        -0.079440276138261    4.491e-06    0.000369    0.000748    0.000748    0.110007
     7        -0.079440276677224    5.579e-07    0.000369    0.000749    0.000749    0.110007

    Iterations converged.


    Largest TIA Amplitudes:
              1   3        -0.0007290725
              2   2         0.0005162659
              3   1         0.0005055734
              4   0         0.0005055722
              0   3        -0.0001698507
              3   0         0.0001051139
              4   1        -0.0001050028
              2   1        -0.0000034187
              3   2         0.0000028481
              4   2        -0.0000027944
              2   0         0.0000022329
              4   3        -0.0000002762
              1   0        -0.0000001683
              2   3         0.0000001173
              1   1         0.0000000559
              0   0        -0.0000000550
              1   2        -0.0000000375
              0   2         0.0000000358
              3   3         0.0000000273
              0   1         0.0000000167

    Largest TIjAb Amplitudes:
      2   2   2   2        -0.0763031123
      3   3   1   1        -0.0733585663
      4   4   0   0        -0.0714235405
      1   2   3   2        -0.0332218840
      2   1   2   3        -0.0332218840
      1   3   3   1        -0.0325253322
      3   1   1   3        -0.0325253322
      1   4   3   0        -0.0325248614
      4   1   0   3        -0.0325248614
      1   1   3   3        -0.0301066371
      2   2   3   3        -0.0260749711
      3   3   3   3        -0.0260573448
      4   4   3   3        -0.0260549341
      1   2   2   3        -0.0257871422
      2   1   3   2        -0.0257871422
      1   3   1   3        -0.0252466966
      3   1   3   1        -0.0252466966
      1   4   0   3        -0.0252463273
      4   1   3   0        -0.0252463273
      2   4   2   0        -0.0236988503
      4   2   0   2        -0.0236988503
      3   4   1   0        -0.0226540167
      4   3   0   1        -0.0226540167
      2   3   2   1        -0.0216979318
      3   2   1   2        -0.0216979318
      2   4   0   2        -0.0205158871
      4   2   2   0        -0.0205158871
      3   4   0   1        -0.0194023868
      4   3   1   0        -0.0194023868
      2   3   1   2        -0.0185149458
      3   2   2   1        -0.0185149458
      1   1   0   0        -0.0178512703
      1   1   1   1        -0.0178511939
      1   1   2   2        -0.0178508952
      3   3   0   0        -0.0167752751
      3   4   0   0        -0.0164461285
      4   3   0   0        -0.0164461285
      3   3   1   3         0.0155805969
      3   3   3   1         0.0155805969
      2   2   2   3        -0.0153203877
      2   2   3   2        -0.0153203877
      4   4   1   1        -0.0145575736
      4   4   2   2        -0.0138161841
      3   4   3   0        -0.0118921022
      4   3   0   3        -0.0118921022
      3   4   0   3        -0.0118916605
      4   3   3   0        -0.0118916605
      2   2   1   1        -0.0118727514
      2   2   0   0        -0.0115924915
      3   4   1   1         0.0112293563
      4   3   1   1         0.0112293563
      3   3   0   1        -0.0104817171
      3   3   1   0        -0.0104817171
      2   4   2   1         0.0102726897
      4   2   1   2         0.0102726897
      4   4   1   3        -0.0101549407
      4   4   3   1        -0.0101549407
      4   4   0   3        -0.0099415242
      4   4   3   0        -0.0099415242
      3   3   2   2        -0.0096596494
      2   4   1   2         0.0096115175
      4   2   2   1         0.0096115175
      4   4   1   2         0.0087008779
      4   4   2   1         0.0087008779
      2   4   2   3         0.0086992425
      4   2   3   2         0.0086992425
      2   4   3   2         0.0086987790
      4   2   2   3         0.0086987790
      2   3   1   3         0.0081615514
      3   2   3   1         0.0081615514
      2   3   3   1         0.0081615011
      3   2   1   3         0.0081615011
      2   4   1   0         0.0079705689
      4   2   0   1         0.0079705689
      3   3   2   3         0.0079536015
      3   3   3   2         0.0079536015
      2   4   0   1         0.0079523568
      4   2   1   0         0.0079523568
      3   4   0   2         0.0077155681
      4   3   2   0         0.0077155681
      2   2   0   3         0.0077137144
      2   2   3   0         0.0077137144
      3   4   2   0         0.0076944185
      4   3   0   2         0.0076944185
      3   3   1   2        -0.0074203516
      3   3   2   1        -0.0074203516
      4   4   2   3         0.0073640315
      4   4   3   2         0.0073640315
      2   3   0   0         0.0068604546
      3   2   0   0         0.0068604546
      2   4   0   3         0.0068171845
      4   2   3   0         0.0068171845
      2   4   3   0         0.0068171507
      4   2   0   3         0.0068171507
      1   4   3   1         0.0067593933
      4   1   1   3         0.0067593933
      1   3   3   0        -0.0067580705
      3   1   0   3        -0.0067580705
      2   3   1   1        -0.0058669239
      3   2   1   1        -0.0058669239
      2   2   0   1         0.0057087881
      2   2   1   0         0.0057087881
      2   4   1   1        -0.0055933149
      4   2   1   1        -0.0055933149
      2   2   1   3        -0.0054270675
      2   2   3   1        -0.0054270675
      1   4   1   3         0.0052470473
      4   1   3   1         0.0052470473
      1   3   0   3        -0.0052454294
      3   1   3   0        -0.0052454294
      2   3   0   1        -0.0052207181
      3   2   1   0        -0.0052207181
      3   4   2   2         0.0052085582
      4   3   2   2         0.0052085582
      2   3   1   0        -0.0052025818
      3   2   0   1        -0.0052025818
      2   4   2   2         0.0051094622
      4   2   2   2         0.0051094622
      4   4   0   1         0.0047729120
      4   4   1   0         0.0047729120
      1   2   2   2        -0.0045179429
      2   1   2   2        -0.0045179429
      1   3   1   1         0.0043987257
      3   1   1   1         0.0043987257
      2   2   0   2         0.0043028553
      2   2   2   0         0.0043028553
      2   3   3   2        -0.0037742915
      3   2   2   3        -0.0037742915
      2   3   2   3        -0.0037742065
      3   2   3   2        -0.0037742065
      2   4   3   1        -0.0037102353
      4   2   1   3        -0.0037102353
      2   4   1   3        -0.0037101108
      4   2   3   1        -0.0037101108
      3   3   0   2        -0.0036560461
      3   3   2   0        -0.0036560461
      3   4   2   1        -0.0036453069
      4   3   1   2        -0.0036453069
      3   4   1   2        -0.0036317143
      4   3   2   1        -0.0036317143
      1   4   0   0        -0.0035952842
      4   1   0   0        -0.0035952842
      1   3   0   0        -0.0033021736
      3   1   0   0        -0.0033021736
      1   4   0   1        -0.0028433224
      4   1   1   0        -0.0028433224
      1   4   1   0        -0.0028430435
      4   1   0   1        -0.0028430435
      1   2   1   1         0.0025875727
      2   1   1   1         0.0025875727
      1   4   2   2         0.0025446137
      4   1   2   2         0.0025446137
      1   3   2   1         0.0024352406
      3   1   1   2         0.0024352406
      1   3   1   2         0.0024336172
      3   1   2   1         0.0024336172
      1   2   2   0         0.0022529679
      2   1   0   2         0.0022529679
      1   2   0   2         0.0022504565
      2   1   2   0         0.0022504565
      3   3   0   3         0.0022324228
      3   3   3   0         0.0022324228
      3   4   3   2        -0.0021370174
      4   3   2   3        -0.0021370174
      3   4   2   3        -0.0021369862
      4   3   3   2        -0.0021369862
      1   4   2   0         0.0020129435
      4   1   0   2         0.0020129435
      1   4   0   2         0.0020113343
      4   1   2   0         0.0020113343
      1   2   0   0         0.0019429009
      2   1   0   0         0.0019429009
      0   0   3   3        -0.0019106259
      1   2   2   1        -0.0015766658
      2   1   1   2        -0.0015766658
      1   2   1   2        -0.0015759264
      2   1   2   1        -0.0015759264
      2   3   0   2         0.0015232638
      3   2   2   0         0.0015232638
      3   4   1   3         0.0014465708
      4   3   3   1         0.0014465708
      3   4   3   1         0.0014456429
      4   3   1   3         0.0014456429
      1   3   1   0         0.0013519741
      3   1   0   1         0.0013519741
      1   3   0   1         0.0013492521
      3   1   1   0         0.0013492521
      2   2   1   2        -0.0012804023
      2   2   2   1        -0.0012804023
      1   3   2   2        -0.0010945990
      3   1   2   2        -0.0010945990
      0   1   2   2         0.0010785434
      1   0   2   2         0.0010785434
      0   1   0   0         0.0010785281
      1   0   0   0         0.0010785281
      0   1   1   1         0.0010785269
      1   0   1   1         0.0010785269
      1   4   2   1        -0.0010753623
      4   1   1   2        -0.0010753623
      1   4   1   2        -0.0010750538
      4   1   2   1        -0.0010750538
      1   4   1   1         0.0010299293
      4   1   1   1         0.0010299293
      2   3   2   2        -0.0009937041
      3   2   2   2        -0.0009937041
      0   2   2   3         0.0008931946
      2   0   3   2         0.0008931946
      0   4   0   3         0.0008748791
      4   0   3   0         0.0008748791
      0   3   1   3         0.0008747872
      3   0   3   1         0.0008747872
      2   3   2   0         0.0008615894
      3   2   0   2         0.0008615894
      0   0   2   2        -0.0007879100
      0   0   1   1        -0.0007878628
      0   0   0   0        -0.0007878527
      0   1   3   3        -0.0006686030
      1   0   3   3        -0.0006686030
      4   4   0   2        -0.0006469763
      4   4   2   0        -0.0006469763
      1   2   1   0        -0.0005872774
      2   1   0   1        -0.0005872774
      1   2   0   1        -0.0005872702
      2   1   1   0        -0.0005872702
      2   3   3   0        -0.0005694792
      3   2   0   3        -0.0005694792
      2   3   0   3        -0.0005693618
      3   2   3   0        -0.0005693618
      2   4   0   0         0.0004849874
      4   2   0   0         0.0004849874
      0   2   2   2        -0.0004197429
      2   0   2   2        -0.0004197429
      0   3   1   1         0.0004067582
      3   0   1   1         0.0004067582
      0   4   0   0        -0.0003309588
      4   0   0   0        -0.0003309588
      0   3   0   0        -0.0003053921
      3   0   0   0        -0.0003053921
      0   4   0   1        -0.0002638220
      4   0   1   0        -0.0002638220
      0   4   1   0        -0.0002637953
      4   0   0   1        -0.0002637953
      0   2   1   1         0.0002396631
      2   0   1   1         0.0002396631
      0   2   3   2        -0.0002372361
      2   0   2   3        -0.0002372361
      0   4   2   2         0.0002357035
      4   0   2   2         0.0002357035
      0   3   3   1        -0.0002320404
      3   0   1   3        -0.0002320404
      0   4   3   0        -0.0002319605
      4   0   0   3        -0.0002319605
      0   3   2   1         0.0002249614
      3   0   1   2         0.0002249614
      0   3   1   2         0.0002247090
      3   0   2   1         0.0002247090
      1   2   3   1         0.0002180377
      2   1   1   3         0.0002180377
      0   2   2   0         0.0002097551
      2   0   0   2         0.0002097551
      0   2   0   2         0.0002093624
      2   0   2   0         0.0002093624
      0   4   2   0         0.0001858418
      4   0   0   2         0.0001858418
      0   4   0   2         0.0001855898
      4   0   2   0         0.0001855898
      1   3   3   2        -0.0001846874
      3   1   2   3        -0.0001846874
      1   4   3   2         0.0001824805
      4   1   2   3         0.0001824805
      0   3   0   3         0.0001818970
      3   0   3   0         0.0001818970
      0   4   1   3        -0.0001816844
      4   0   3   1        -0.0001816844
      0   2   0   0         0.0001799597
      2   0   0   0         0.0001799597
      1   2   1   3         0.0001692762
      2   1   3   1         0.0001692762
      0   2   2   1        -0.0001463605
      2   0   1   2        -0.0001463605
      0   2   1   2        -0.0001462323
      2   0   2   1        -0.0001462323
      1   3   2   3        -0.0001433391
      3   1   3   2        -0.0001433391
      1   3   0   2        -0.0001431586
      3   1   2   0        -0.0001431586
      1   3   2   0        -0.0001427751
      3   1   0   2        -0.0001427751
      1   4   2   3         0.0001415768
      4   1   3   2         0.0001415768
      1   2   3   0        -0.0001413617
      2   1   0   3        -0.0001413617
      0   3   1   0         0.0001261963
      3   0   0   1         0.0001261963
      0   3   0   1         0.0001258156
      3   0   1   0         0.0001258156
      1   2   0   3        -0.0001097903
      2   1   3   0        -0.0001097903
      0   3   2   2        -0.0001013911
      3   0   2   2        -0.0001013911
      0   4   2   1        -0.0000994704
      4   0   1   2        -0.0000994704
      0   4   1   2        -0.0000994125
      4   0   2   1        -0.0000994125
      0   4   1   1         0.0000955115
      4   0   1   1         0.0000955115
      0   2   1   0        -0.0000543901
      2   0   0   1        -0.0000543901
      0   2   0   1        -0.0000543866
      2   0   1   0        -0.0000543866
      0   4   3   1         0.0000483009
      4   0   1   3         0.0000483009
      0   3   3   0        -0.0000481188
      3   0   0   3        -0.0000481188
      1   4   3   3         0.0000198959
      4   1   3   3         0.0000198959
      0   3   0   2        -0.0000133830
      3   0   2   0        -0.0000133830
      0   3   2   0        -0.0000133355
      3   0   0   2        -0.0000133355
      1   2   3   3        -0.0000120058
      2   1   3   3        -0.0000120058
      3   4   3   3         0.0000072809
      4   3   3   3         0.0000072809
      0   2   1   3        -0.0000058526
      2   0   3   1        -0.0000058526
      0   3   2   3         0.0000049717
      3   0   3   2         0.0000049717
      0   4   2   3        -0.0000049306
      4   0   3   2        -0.0000049306
      0   2   0   3         0.0000037791
      2   0   3   0         0.0000037791
      1   1   0   3        -0.0000036602
      1   1   3   0        -0.0000036602
      1   1   2   3         0.0000023192
      1   1   3   2         0.0000023192
      1   3   3   3        -0.0000018740
      3   1   3   3        -0.0000018740
      0   2   3   1         0.0000015674
      2   0   1   3         0.0000015674
      2   4   3   3        -0.0000013333
      4   2   3   3        -0.0000013333
      0   3   3   2        -0.0000013119
      3   0   2   3        -0.0000013119
      0   4   3   2         0.0000012804
      4   0   2   3         0.0000012804
      1   1   1   3         0.0000011155
      1   1   3   1         0.0000011155
      0   2   3   0        -0.0000010294
      2   0   0   3        -0.0000010294
      0   1   0   3        -0.0000005794
      1   0   3   0        -0.0000005794
      0   1   3   0        -0.0000005738
      1   0   0   3        -0.0000005738
      0   0   0   3        -0.0000003684
      0   0   3   0        -0.0000003684
      0   1   3   2         0.0000003579
      1   0   2   3         0.0000003579
      0   1   2   3         0.0000003552
      1   0   3   2         0.0000003552
      2   3   3   3         0.0000003075
      3   2   3   3         0.0000003075
      0   0   2   3         0.0000002451
      0   0   3   2         0.0000002451
      0   4   3   3        -0.0000002232
      4   0   3   3        -0.0000002232
      0   1   1   3         0.0000001770
      1   0   3   1         0.0000001770
      0   1   3   1         0.0000001751
      1   0   1   3         0.0000001751
      0   2   3   3         0.0000001219
      2   0   3   3         0.0000001219
      0   0   1   3         0.0000001119
      0   0   3   1         0.0000001119
      1   1   0   1         0.0000001077
      1   1   1   0         0.0000001077
      1   1   0   2         0.0000000630
      1   1   2   0         0.0000000630
      1   1   1   2        -0.0000000518
      1   1   2   1        -0.0000000518
      0   3   3   3         0.0000000213
      3   0   3   3         0.0000000213
      0   1   0   1         0.0000000126
      0   1   1   0         0.0000000126
      1   0   0   1         0.0000000126
      1   0   1   0         0.0000000126

    SCF energy       (wfn)                    =  -39.726581711820565
    Reference energy (file100)                =  -39.726581711820558

    Opposite-spin MP2 correlation energy      =   -0.053747042944420
    Same-spin MP2 correlation energy          =   -0.003045333558614
    MP2 correlation energy                    =   -0.056792376503034
      * MP2 total energy                      =  -39.783374088323590

    Opposite-spin CCSD correlation energy     =   -0.077585545858052
    Same-spin CCSD correlation energy         =   -0.001854730819172
    CCSD correlation energy                   =   -0.079440276677224
      * CCSD total energy                     =  -39.806021988497783


    Psi4 stopped on: Wednesday, 04 March 2020 12:37PM
    Psi4 wall time for execution: 0:00:03.49

*** Psi4 exiting successfully. Buy a developer a beer!
