
    -----------------------------------------------------------------------
          Psi4: An Open-Source Ab Initio Electronic Structure Package
                               Psi4 1.3.2 release

                         Git: Rev {HEAD} ecbda83 


    R. M. Parrish, L. A. Burns, D. G. A. Smith, A. C. Simmonett,
    A. E. DePrince III, E. G. Hohenstein, U. Bozkaya, A. Yu. Sokolov,
    R. Di Remigio, R. M. Richard, J. F. Gonthier, A. M. James,
    H. R. McAlexander, A. Kumar, M. Saitow, X. Wang, B. P. Pritchard,
    P. Verma, H. F. Schaefer III, K. Patkowski, R. A. King, E. F. Valeev,
    F. A. Evangelista, J. M. Turney, T. D. Crawford, and C. D. Sherrill,
    J. Chem. Theory Comput. 13(7) pp 3185--3197 (2017).
    (doi: 10.1021/acs.jctc.7b00174)


                         Additional Contributions by
    P. Kraus, H. Kruse, M. H. Lechner, M. C. Schieber, R. A. Shaw,
    A. Alenaizan, R. Galvelis, Z. L. Glick, S. Lehtola, and J. P. Misiewicz

    -----------------------------------------------------------------------


    Psi4 started on: Thursday, 05 March 2020 11:28AM

    Process ID: 4804
    Host:       trurls-machine
    PSIDATADIR: /Users/teague/anaconda3/envs/gen_env/share/psi4
    Memory:     500.0 MiB
    Threads:    1
    
  ==> Input File <==

--------------------------------------------------------------------------
"""This is a template for psi4 input format."""
import numpy
import sys

from openfermion.config import *
from openfermion.hamiltonians import MolecularData
from openfermion.ops import general_basis_change

from numpy import array

sys.path.append('/Users/teague/.local/lib/python3.7/site-packages/openfermionpsi4')
from _psi4_conversion_functions import *


# Set memory that job can use in megabytes.
memory 8000 mb

# Initialize molecular data.
_description = 'NIST'
if _description == 'None':
    _description = None
molecule = MolecularData([('Cl', (-0.0264, -0.0155, 0.0)), ('Cl', (1.733, 1.0194, 0.0))],
                         'sto-3g',
                         1,
                         0,
                         _description,
                          filename='molecule_data/Cl2_sto-3g_singlet_NIST')

# Set molecular geometry and symmetry.
molecule mol {
Cl -0.0264 -0.0155 0.0
Cl 1.733 1.0194 0.0
symmetry c1
}
mol.set_multiplicity(1)
mol.set_molecular_charge(0)

# Set reference and guess.
if molecule.multiplicity == 1:
    set reference rhf
    set guess sad
else:
    set reference rohf
    set guess gwh

# Set global parameters of calculation.
set globals {
    basis sto-3g
    freeze_core false
    fail_on_maxiter True
    df_scf_guess false
    opdm true
    tpdm true
    soscf false
    scf_type pk
    maxiter 1e6
    num_amps_print 1e6
    r_convergence 1e-6
    d_convergence 1e-6
    e_convergence 1e-6
    ints_tolerance EQUALITY_TOLERANCE
    damping_percentage 0
}

# Run self-consistent field (SCF) calculation.
if True:
    try:
        hf_energy, hf_wavefunction = energy('scf', return_wfn=True)
        if False:
            print('Hartree-Fock energy for {} ({} electrons) is {}.'.format(
                molecule.name, molecule.n_electrons, hf_energy))
    except:
        if False:
            print('WARNING: SCF calculation failed.')
        else:
            raise
    finally:
        # Get orbitals and Fock matrix.
        molecule.hf_energy = hf_energy
        molecule.nuclear_repulsion = mol.nuclear_repulsion_energy()
        molecule.canonical_orbitals = numpy.asarray(hf_wavefunction.Ca())
        molecule.overlap_integrals = numpy.asarray(hf_wavefunction.S())
        molecule.n_orbitals = molecule.canonical_orbitals.shape[0]
        molecule.n_qubits = 2 * molecule.n_orbitals
        molecule.orbital_energies = numpy.asarray(hf_wavefunction.epsilon_a())
        molecule.fock_matrix = numpy.asarray(hf_wavefunction.Fa())

        # Get integrals using MintsHelper.
        mints = MintsHelper(hf_wavefunction.basisset())
        molecule.one_body_integrals = general_basis_change(
            numpy.asarray(mints.ao_kinetic()), molecule.canonical_orbitals, (1, 0))
        molecule.one_body_integrals += general_basis_change(
            numpy.asarray(mints.ao_potential()), molecule.canonical_orbitals, (1, 0))
        two_body_integrals = numpy.asarray(mints.ao_eri())
        two_body_integrals.reshape((molecule.n_orbitals, molecule.n_orbitals,
                                    molecule.n_orbitals, molecule.n_orbitals))
        two_body_integrals = numpy.einsum('psqr', two_body_integrals)
        two_body_integrals = general_basis_change(
            two_body_integrals, molecule.canonical_orbitals, (1, 1, 0, 0))
        molecule.two_body_integrals = two_body_integrals
        molecule.save()


# Perform MP2 energy calculation if there are at least two electrons.
if True:
    try:
        assert molecule.n_electrons > 1
        mp2_energy = energy('mp2')
        if False:
            print('MP2 energy for {} ({} electrons) is {}.'.format(
                molecule.name, molecule.n_electrons, mp2_energy))
    except:
        if False:
            print('WARNING: MP2 calculation failed.')
        else:
            raise
    else:
        molecule.mp2_energy = mp2_energy
        molecule.save()


# Perform configuration interaction singles and doubles (CISD) calculation.
if True:
    set qc_module detci
    try:
        cisd_energy, cisd_wavefunction = energy('cisd', return_wfn=True)
        if False:
            print('CISD energy for {} ({} electrons) is {}.'.format(
                molecule.name, molecule.n_electrons, cisd_energy))
    except:
        if False:
            print('WARNING: CISD calculation failed.')
        else:
            raise
    else:
        # For the functions below, "a" and "b" refer to "up and "down" spins.
        molecule.cisd_energy = cisd_energy

        # Get 1-RDM from CISD calculation.
        cisd_one_rdm_a = numpy.array(cisd_wavefunction.get_opdm(
            0, 0, 'A', True)).reshape(molecule.n_orbitals, molecule.n_orbitals)
        cisd_one_rdm_b = numpy.array(cisd_wavefunction.get_opdm(
            0, 0, 'B', True)).reshape(molecule.n_orbitals, molecule.n_orbitals)

        # Get 2-RDM from CISD calculation.
        cisd_two_rdm_aa = numpy.array(cisd_wavefunction.get_tpdm(
            'AA', False)).reshape(molecule.n_orbitals, molecule.n_orbitals,
                                  molecule.n_orbitals, molecule.n_orbitals)
        cisd_two_rdm_ab = numpy.array(cisd_wavefunction.get_tpdm(
            'AB', False)).reshape(molecule.n_orbitals, molecule.n_orbitals,
                                  molecule.n_orbitals, molecule.n_orbitals)
        cisd_two_rdm_bb = numpy.array(cisd_wavefunction.get_tpdm(
            'BB', False)).reshape(molecule.n_orbitals, molecule.n_orbitals,
                                  molecule.n_orbitals, molecule.n_orbitals)

        # Get overall RDMs.
        cisd_one_rdm, cisd_two_rdm = unpack_spatial_rdm(
            cisd_one_rdm_a, cisd_one_rdm_b, cisd_two_rdm_aa,
            cisd_two_rdm_ab, cisd_two_rdm_bb)

        # Store 1-RDM in molecule file, 2-RDM separately in other file.
        molecule.cisd_one_rdm = cisd_one_rdm
        molecule.cisd_two_rdm = cisd_two_rdm
        molecule.save()


# Perform exact diagonalization.
if True:
    set qc_module detci
    try:
        fci_energy, fci_wavefunction = energy('fci', return_wfn=True)
        if False:
            print('FCI energy for {} ({} electrons) is {}.'.format(
                molecule.name, molecule.n_electrons, fci_energy))
    except:
        if False:
            print('WARNING: FCI calculation failed.')
        else:
            raise
    finally:
        # For the functions below, "a" and "b" refer to "up and "down" spins.
        molecule.fci_energy = fci_energy

        # Get 1-RDM from FCI calculation.
        fci_one_rdm_a = numpy.array(fci_wavefunction.get_opdm(
            0, 0, 'A', True)).reshape(molecule.n_orbitals, molecule.n_orbitals)
        fci_one_rdm_b = numpy.array(fci_wavefunction.get_opdm(
            0, 0, 'B', True)).reshape(molecule.n_orbitals, molecule.n_orbitals)

        # Get 2-RDM from FCI calculation.
        fci_two_rdm_aa = numpy.array(fci_wavefunction.get_tpdm(
            'AA', False)).reshape(molecule.n_orbitals, molecule.n_orbitals,
                                  molecule.n_orbitals, molecule.n_orbitals)
        fci_two_rdm_ab = numpy.array(fci_wavefunction.get_tpdm(
            'AB', False)).reshape(molecule.n_orbitals, molecule.n_orbitals,
                                  molecule.n_orbitals, molecule.n_orbitals)
        fci_two_rdm_bb = numpy.array(fci_wavefunction.get_tpdm(
            'BB', False)).reshape(molecule.n_orbitals, molecule.n_orbitals,
                                  molecule.n_orbitals, molecule.n_orbitals)

        # Get overall RDMs.
        fci_one_rdm, fci_two_rdm = unpack_spatial_rdm(
            fci_one_rdm_a, fci_one_rdm_b,
            fci_two_rdm_aa, fci_two_rdm_ab, fci_two_rdm_bb)

        # Store 1-RDM in molecule file, 2-RDM separately in other file.
        molecule.fci_one_rdm = fci_one_rdm
        molecule.fci_two_rdm = fci_two_rdm
        molecule.save()


# Perform coupled cluster singles and doubles (CCSD) calculation.
if True:
    set qc_module ccenergy
    try:
        ccsd_energy = energy('ccsd')
        if False:
            print('CCSD energy for {} ({} electrons) is {}.'.format(
                molecule.name, molecule.n_electrons, ccsd_energy))
    except:
        if False:
            print('WARNING: CCSD calculation failed.')
        else:
            raise
    else:
        molecule.ccsd_energy = ccsd_energy

        # Merge CC amplitudes into molecule by parsing
        psi_filename = outfile_name()
        single_cc_amplitudes, double_cc_amplitudes = (
            parse_psi4_ccsd_amplitudes(
                2 * molecule.n_orbitals,
                molecule.get_n_alpha_electrons(),
                molecule.get_n_beta_electrons(),
                psi_filename))

        molecule.ccsd_single_amps = single_cc_amplitudes
        molecule.ccsd_double_amps = double_cc_amplitudes
        molecule.save()
--------------------------------------------------------------------------

  Memory set to   7.451 GiB by Python driver.

*** tstart() called on trurls-machine
*** at Thu Mar  5 11:28:49 2020

   => Loading Basis Set <=

    Name: STO-3G
    Role: ORBITAL
    Keyword: BASIS
    atoms 1-2 entry CL         line   195 file /Users/teague/anaconda3/envs/gen_env/share/psi4/basis/sto-3g.gbs 


         ---------------------------------------------------------
                                   SCF
               by Justin Turney, Rob Parrish, Andy Simmonett
                          and Daniel G. A. Smith
                              RHF Reference
                        1 Threads,   7629 MiB Core
         ---------------------------------------------------------

  ==> Geometry <==

    Molecular point group: c1
    Full point group: D_inf_h

    Geometry (in Angstrom), charge = 0, multiplicity = 1:

       Center              X                  Y                   Z               Mass       
    ------------   -----------------  -----------------  -----------------  -----------------
         CL          -1.020601093719     0.000000000000     0.000000000000    34.968852682000
         CL           1.020601093719     0.000000000000     0.000000000000    34.968852682000

  Running in c1 symmetry.

  Rotational constants: A = ************  B =      0.23141  C =      0.23141 [cm^-1]
  Rotational constants: A = ************  B =   6937.35248  C =   6937.35248 [MHz]
  Nuclear repulsion =   74.922619045207171

  Charge       = 0
  Multiplicity = 1
  Electrons    = 34
  Nalpha       = 17
  Nbeta        = 17

  ==> Algorithm <==

  SCF Algorithm Type is PK.
  DIIS enabled.
  MOM disabled.
  Fractional occupation disabled.
  Guess Type is SAD.
  Energy threshold   = 1.00e-06
  Density threshold  = 1.00e-06
  Integral threshold = 0.00e+00

  ==> Primary Basis <==

  Basis Set: STO-3G
    Blend: STO-3G
    Number of shells: 10
    Number of basis function: 18
    Number of Cartesian functions: 18
    Spherical Harmonics?: true
    Max angular momentum: 1

  ==> Pre-Iterations <==

   -------------------------------------------------------
    Irrep   Nso     Nmo     Nalpha   Nbeta   Ndocc  Nsocc
   -------------------------------------------------------
     A         18      18       0       0       0       0
   -------------------------------------------------------
    Total      18      18      17      17      17       0
   -------------------------------------------------------

  ==> Integral Setup <==

  Using in-core PK algorithm.
   Calculation information:
      Number of atoms:                   2
      Number of AO shells:              10
      Number of primitives:             30
      Number of atomic orbitals:        18
      Number of basis functions:        18

      Integral cutoff                 1.00e-12
      Number of threads:                 1

  Performing in-core PK
  Using 29412 doubles for integral storage.
  We computed 1263 shell quartets total.
  Whereas there are 1540 unique shell quartets.

  ==> DiskJK: Disk-Based J/K Matrices <==

    J tasked:                  Yes
    K tasked:                  Yes
    wK tasked:                  No
    Memory [MiB]:             5722
    Schwarz Cutoff:          1E-12

    OpenMP threads:              1

  Minimum eigenvalue in the overlap matrix is 4.6846168527E-01.
  Using Symmetric Orthogonalization.

  SCF Guess: Superposition of Atomic Densities via on-the-fly atomic UHF.

  ==> Iterations <==

                        Total Energy        Delta E     RMS |[F,P]|

   @RHF iter SAD:  -908.71659380883921   -9.08717e+02   0.00000e+00 
   @RHF iter   1:  -909.10511055078132   -3.88517e-01   5.26763e-03 DIIS
   @RHF iter   2:  -909.11451523269272   -9.40468e-03   1.01736e-03 DIIS
   @RHF iter   3:  -909.11490575512960   -3.90522e-04   3.15462e-05 DIIS
   @RHF iter   4:  -909.11490599575416   -2.40625e-07   2.57387e-07 DIIS
  Energy and wave function converged.


  ==> Post-Iterations <==

    Orbital Energies [Eh]
    ---------------------

    Doubly Occupied:                                                      

       1A   -103.794921     2A   -103.794871     3A    -10.472579  
       4A    -10.470461     5A     -7.917839     6A     -7.915486  
       7A     -7.909575     8A     -7.909575     9A     -7.908747  
      10A     -7.908747    11A     -1.141206    12A     -0.942889  
      13A     -0.523736    14A     -0.519160    15A     -0.519160  
      16A     -0.410256    17A     -0.410256  

    Virtual:                                                              

      18A      0.111244  

    Final Occupation by Irrep:
              A 
    DOCC [    17 ]

  @RHF Final Energy:  -909.11490599575416

   => Energetics <=

    Nuclear Repulsion Energy =             74.9226190452071705
    One-Electron Energy =               -1407.1361131820581249
    Two-Electron Energy =                 423.0985881410967409
    Total Energy =                       -909.1149059957540430

Computation Completed


Properties will be evaluated at   0.000000,   0.000000,   0.000000 [a0]

Properties computed using the SCF density matrix

  Nuclear Dipole Moment: [e a0]
     X:     0.0000      Y:     0.0000      Z:     0.0000

  Electronic Dipole Moment: [e a0]
     X:    -0.0000      Y:     0.0000      Z:    -0.0000

  Dipole Moment: [e a0]
     X:    -0.0000      Y:     0.0000      Z:    -0.0000     Total:     0.0000

  Dipole Moment: [D]
     X:    -0.0000      Y:     0.0000      Z:    -0.0000     Total:     0.0000


*** tstop() called on trurls-machine at Thu Mar  5 11:28:49 2020
Module time:
	user time   =       0.16 seconds =       0.00 minutes
	system time =       0.01 seconds =       0.00 minutes
	total time  =          0 seconds =       0.00 minutes
Total time:
	user time   =       0.16 seconds =       0.00 minutes
	system time =       0.01 seconds =       0.00 minutes
	total time  =          0 seconds =       0.00 minutes

*** tstart() called on trurls-machine
*** at Thu Mar  5 11:28:49 2020

   => Loading Basis Set <=

    Name: STO-3G
    Role: ORBITAL
    Keyword: BASIS
    atoms 1-2 entry CL         line   195 file /Users/teague/anaconda3/envs/gen_env/share/psi4/basis/sto-3g.gbs 


         ---------------------------------------------------------
                                   SCF
               by Justin Turney, Rob Parrish, Andy Simmonett
                          and Daniel G. A. Smith
                              RHF Reference
                        1 Threads,   7629 MiB Core
         ---------------------------------------------------------

  ==> Geometry <==

    Molecular point group: c1
    Full point group: D_inf_h

    Geometry (in Angstrom), charge = 0, multiplicity = 1:

       Center              X                  Y                   Z               Mass       
    ------------   -----------------  -----------------  -----------------  -----------------
         CL          -1.020601093719     0.000000000000     0.000000000000    34.968852682000
         CL           1.020601093719     0.000000000000     0.000000000000    34.968852682000

  Running in c1 symmetry.

  Rotational constants: A = ************  B =      0.23141  C =      0.23141 [cm^-1]
  Rotational constants: A = ************  B =   6937.35248  C =   6937.35248 [MHz]
  Nuclear repulsion =   74.922619045207185

  Charge       = 0
  Multiplicity = 1
  Electrons    = 34
  Nalpha       = 17
  Nbeta        = 17

  ==> Algorithm <==

  SCF Algorithm Type is PK.
  DIIS enabled.
  MOM disabled.
  Fractional occupation disabled.
  Guess Type is SAD.
  Energy threshold   = 1.00e-06
  Density threshold  = 1.00e-06
  Integral threshold = 0.00e+00

  ==> Primary Basis <==

  Basis Set: STO-3G
    Blend: STO-3G
    Number of shells: 10
    Number of basis function: 18
    Number of Cartesian functions: 18
    Spherical Harmonics?: true
    Max angular momentum: 1

  ==> Pre-Iterations <==

   -------------------------------------------------------
    Irrep   Nso     Nmo     Nalpha   Nbeta   Ndocc  Nsocc
   -------------------------------------------------------
     A         18      18       0       0       0       0
   -------------------------------------------------------
    Total      18      18      17      17      17       0
   -------------------------------------------------------

  ==> Integral Setup <==

  Using in-core PK algorithm.
   Calculation information:
      Number of atoms:                   2
      Number of AO shells:              10
      Number of primitives:             30
      Number of atomic orbitals:        18
      Number of basis functions:        18

      Integral cutoff                 1.00e-12
      Number of threads:                 1

  Performing in-core PK
  Using 29412 doubles for integral storage.
  We computed 1263 shell quartets total.
  Whereas there are 1540 unique shell quartets.

  ==> DiskJK: Disk-Based J/K Matrices <==

    J tasked:                  Yes
    K tasked:                  Yes
    wK tasked:                  No
    Memory [MiB]:             5722
    Schwarz Cutoff:          1E-12

    OpenMP threads:              1

  Minimum eigenvalue in the overlap matrix is 4.6846168527E-01.
  Using Symmetric Orthogonalization.

  SCF Guess: Superposition of Atomic Densities via on-the-fly atomic UHF.

  ==> Iterations <==

                        Total Energy        Delta E     RMS |[F,P]|

   @RHF iter SAD:  -908.71659380883852   -9.08717e+02   0.00000e+00 
   @RHF iter   1:  -909.10511055078234   -3.88517e-01   5.26763e-03 DIIS
   @RHF iter   2:  -909.11451523269432   -9.40468e-03   1.01736e-03 DIIS
   @RHF iter   3:  -909.11490575513096   -3.90522e-04   3.15462e-05 DIIS
   @RHF iter   4:  -909.11490599575666   -2.40626e-07   2.57387e-07 DIIS
  Energy and wave function converged.


  ==> Post-Iterations <==

    Orbital Energies [Eh]
    ---------------------

    Doubly Occupied:                                                      

       1A   -103.794921     2A   -103.794871     3A    -10.472579  
       4A    -10.470461     5A     -7.917839     6A     -7.915486  
       7A     -7.909575     8A     -7.909575     9A     -7.908747  
      10A     -7.908747    11A     -1.141206    12A     -0.942889  
      13A     -0.523736    14A     -0.519160    15A     -0.519160  
      16A     -0.410256    17A     -0.410256  

    Virtual:                                                              

      18A      0.111244  

    Final Occupation by Irrep:
              A 
    DOCC [    17 ]

  @RHF Final Energy:  -909.11490599575666

   => Energetics <=

    Nuclear Repulsion Energy =             74.9226190452071847
    One-Electron Energy =               -1407.1361131820631272
    Two-Electron Energy =                 423.0985881410992420
    Total Energy =                       -909.1149059957565441

Computation Completed


Properties will be evaluated at   0.000000,   0.000000,   0.000000 [a0]

Properties computed using the SCF density matrix

  Nuclear Dipole Moment: [e a0]
     X:     0.0000      Y:     0.0000      Z:     0.0000

  Electronic Dipole Moment: [e a0]
     X:    -0.0000      Y:     0.0000      Z:     0.0000

  Dipole Moment: [e a0]
     X:    -0.0000      Y:     0.0000      Z:     0.0000     Total:     0.0000

  Dipole Moment: [D]
     X:    -0.0000      Y:     0.0000      Z:     0.0000     Total:     0.0000


*** tstop() called on trurls-machine at Thu Mar  5 11:28:50 2020
Module time:
	user time   =       0.14 seconds =       0.00 minutes
	system time =       0.01 seconds =       0.00 minutes
	total time  =          1 seconds =       0.02 minutes
Total time:
	user time   =       0.39 seconds =       0.01 minutes
	system time =       0.03 seconds =       0.00 minutes
	total time  =          1 seconds =       0.02 minutes

*** tstart() called on trurls-machine
*** at Thu Mar  5 11:28:50 2020


  //>>>>>>>>>>>>>>>>>>>>>>>>>>>>>>>>>>>//
  //               DFMP2               //
  //<<<<<<<<<<<<<<<<<<<<<<<<<<<<<<<<<<<//

   => Loading Basis Set <=

    Name: (STO-3G AUX)
    Role: RIFIT
    Keyword: DF_BASIS_MP2
    atoms 1-2 entry CL         line  1114 file /Users/teague/anaconda3/envs/gen_env/share/psi4/basis/def2-qzvpp-ri.gbs 

	 --------------------------------------------------------
	                          DF-MP2                         
	      2nd-Order Density-Fitted Moller-Plesset Theory     
	              RMP2 Wavefunction,   1 Threads             
	                                                         
	        Rob Parrish, Justin Turney, Andy Simmonett,      
	           Ed Hohenstein, and C. David Sherrill          
	 --------------------------------------------------------

   => Auxiliary Basis Set <=

  Basis Set: (STO-3G AUX)
    Blend: DEF2-QZVPP-RI
    Number of shells: 82
    Number of basis function: 334
    Number of Cartesian functions: 444
    Spherical Harmonics?: true
    Max angular momentum: 5

	 --------------------------------------------------------
	                 NBF =    18, NAUX =   334
	 --------------------------------------------------------
	   CLASS    FOCC     OCC    AOCC    AVIR     VIR    FVIR
	   PAIRS       0      17      17       1       1       0
	 --------------------------------------------------------

	-----------------------------------------------------------
	 ==================> DF-MP2 Energies <==================== 
	-----------------------------------------------------------
	 Reference Energy          =    -909.1149059957566578 [Eh]
	 Singles Energy            =      -0.0000000000000000 [Eh]
	 Same-Spin Energy          =       0.0000000000000000 [Eh]
	 Opposite-Spin Energy      =      -0.0202488785094979 [Eh]
	 Correlation Energy        =      -0.0202488785094979 [Eh]
	 Total Energy              =    -909.1351548742661635 [Eh]
	-----------------------------------------------------------
	 ================> DF-SCS-MP2 Energies <================== 
	-----------------------------------------------------------
	 SCS Same-Spin Scale       =       0.3333333333333333 [-]
	 SCS Opposite-Spin Scale   =       1.2000000000000000 [-]
	 SCS Same-Spin Energy      =       0.0000000000000000 [Eh]
	 SCS Opposite-Spin Energy  =      -0.0242986542113975 [Eh]
	 SCS Correlation Energy    =      -0.0242986542113975 [Eh]
	 SCS Total Energy          =    -909.1392046499680646 [Eh]
	-----------------------------------------------------------


*** tstop() called on trurls-machine at Thu Mar  5 11:28:50 2020
Module time:
	user time   =       0.10 seconds =       0.00 minutes
	system time =       0.00 seconds =       0.00 minutes
	total time  =          0 seconds =       0.00 minutes
Total time:
	user time   =       0.49 seconds =       0.01 minutes
	system time =       0.03 seconds =       0.00 minutes
	total time  =          1 seconds =       0.02 minutes

*** tstart() called on trurls-machine
*** at Thu Mar  5 11:28:50 2020

   => Loading Basis Set <=

    Name: STO-3G
    Role: ORBITAL
    Keyword: BASIS
    atoms 1-2 entry CL         line   195 file /Users/teague/anaconda3/envs/gen_env/share/psi4/basis/sto-3g.gbs 


         ---------------------------------------------------------
                                   SCF
               by Justin Turney, Rob Parrish, Andy Simmonett
                          and Daniel G. A. Smith
                              RHF Reference
                        1 Threads,   7629 MiB Core
         ---------------------------------------------------------

  ==> Geometry <==

    Molecular point group: c1
    Full point group: D_inf_h

    Geometry (in Angstrom), charge = 0, multiplicity = 1:

       Center              X                  Y                   Z               Mass       
    ------------   -----------------  -----------------  -----------------  -----------------
         CL          -1.020601093719     0.000000000000     0.000000000000    34.968852682000
         CL           1.020601093719     0.000000000000     0.000000000000    34.968852682000

  Running in c1 symmetry.

  Rotational constants: A = ************  B =      0.23141  C =      0.23141 [cm^-1]
  Rotational constants: A = ************  B =   6937.35248  C =   6937.35248 [MHz]
  Nuclear repulsion =   74.922619045207185

  Charge       = 0
  Multiplicity = 1
  Electrons    = 34
  Nalpha       = 17
  Nbeta        = 17

  ==> Algorithm <==

  SCF Algorithm Type is PK.
  DIIS enabled.
  MOM disabled.
  Fractional occupation disabled.
  Guess Type is SAD.
  Energy threshold   = 1.00e-06
  Density threshold  = 1.00e-06
  Integral threshold = 0.00e+00

  ==> Primary Basis <==

  Basis Set: STO-3G
    Blend: STO-3G
    Number of shells: 10
    Number of basis function: 18
    Number of Cartesian functions: 18
    Spherical Harmonics?: true
    Max angular momentum: 1

  ==> Pre-Iterations <==

   -------------------------------------------------------
    Irrep   Nso     Nmo     Nalpha   Nbeta   Ndocc  Nsocc
   -------------------------------------------------------
     A         18      18       0       0       0       0
   -------------------------------------------------------
    Total      18      18      17      17      17       0
   -------------------------------------------------------

  ==> Integral Setup <==

  Using in-core PK algorithm.
   Calculation information:
      Number of atoms:                   2
      Number of AO shells:              10
      Number of primitives:             30
      Number of atomic orbitals:        18
      Number of basis functions:        18

      Integral cutoff                 1.00e-12
      Number of threads:                 1

  Performing in-core PK
  Using 29412 doubles for integral storage.
  We computed 1263 shell quartets total.
  Whereas there are 1540 unique shell quartets.

  ==> DiskJK: Disk-Based J/K Matrices <==

    J tasked:                  Yes
    K tasked:                  Yes
    wK tasked:                  No
    Memory [MiB]:             5722
    Schwarz Cutoff:          1E-12

    OpenMP threads:              1

  Minimum eigenvalue in the overlap matrix is 4.6846168527E-01.
  Using Symmetric Orthogonalization.

  SCF Guess: Superposition of Atomic Densities via on-the-fly atomic UHF.

  ==> Iterations <==

                        Total Energy        Delta E     RMS |[F,P]|

   @RHF iter SAD:  -908.71659380884034   -9.08717e+02   0.00000e+00 
   @RHF iter   1:  -909.10511055078132   -3.88517e-01   5.26763e-03 DIIS
   @RHF iter   2:  -909.11451523269363   -9.40468e-03   1.01736e-03 DIIS
   @RHF iter   3:  -909.11490575512983   -3.90522e-04   3.15462e-05 DIIS
   @RHF iter   4:  -909.11490599575507   -2.40625e-07   2.57387e-07 DIIS
  Energy and wave function converged.


  ==> Post-Iterations <==

    Orbital Energies [Eh]
    ---------------------

    Doubly Occupied:                                                      

       1A   -103.794921     2A   -103.794871     3A    -10.472579  
       4A    -10.470461     5A     -7.917839     6A     -7.915486  
       7A     -7.909575     8A     -7.909575     9A     -7.908747  
      10A     -7.908747    11A     -1.141206    12A     -0.942889  
      13A     -0.523736    14A     -0.519160    15A     -0.519160  
      16A     -0.410256    17A     -0.410256  

    Virtual:                                                              

      18A      0.111244  

    Final Occupation by Irrep:
              A 
    DOCC [    17 ]

  @RHF Final Energy:  -909.11490599575507

   => Energetics <=

    Nuclear Repulsion Energy =             74.9226190452071847
    One-Electron Energy =               -1407.1361131820599439
    Two-Electron Energy =                 423.0985881410976504
    Total Energy =                       -909.1149059957549525

Computation Completed


Properties will be evaluated at   0.000000,   0.000000,   0.000000 [a0]

Properties computed using the SCF density matrix

  Nuclear Dipole Moment: [e a0]
     X:     0.0000      Y:     0.0000      Z:     0.0000

  Electronic Dipole Moment: [e a0]
     X:     0.0000      Y:    -0.0000      Z:    -0.0000

  Dipole Moment: [e a0]
     X:     0.0000      Y:    -0.0000      Z:    -0.0000     Total:     0.0000

  Dipole Moment: [D]
     X:     0.0000      Y:    -0.0000      Z:    -0.0000     Total:     0.0000


*** tstop() called on trurls-machine at Thu Mar  5 11:28:50 2020
Module time:
	user time   =       0.13 seconds =       0.00 minutes
	system time =       0.00 seconds =       0.00 minutes
	total time  =          0 seconds =       0.00 minutes
Total time:
	user time   =       0.66 seconds =       0.01 minutes
	system time =       0.04 seconds =       0.00 minutes
	total time  =          1 seconds =       0.02 minutes
 MINTS: Wrapper to libmints.
   by Justin Turney

   Calculation information:
      Number of threads:                 1
      Number of atoms:                   2
      Number of AO shells:              10
      Number of SO shells:              10
      Number of primitives:             30
      Number of atomic orbitals:        18
      Number of basis functions:        18

      Number of irreps:                  1
      Integral cutoff                 0.00e+00
      Number of functions per irrep: [  18 ]

 OEINTS: Overlap, kinetic, potential, dipole, and quadrupole integrals
         stored in file 35.

      Computing two-electron integrals...done
      Computed 4350 non-zero two-electron integrals.
        Stored in file 33.


         ---------------------------------------------------------
                          Configuration Interaction
                            (a 'D E T C I' module)

                 C. David Sherrill, Daniel G. A. Smith, and
                              Matt L. Leininger
         ---------------------------------------------------------


   ==> Parameters <==

    EX LEVEL       =        2      H0 BLOCKSIZE  =     1000
    VAL EX LEVEL   =        0      H0 GUESS SIZE =     1000
    H0COUPLINGSIZE =        0      H0 COUPLING   =       NO
    MAXITER        =       24      NUM PRINT     =       20
    NUM ROOTS      =        1      ICORE         =        1
    PRINT LVL      =        1      FCI           =       NO
    R CONV         = 1.00e-06      MIXED         =      YES
    E CONV         = 1.00e-06      MIXED4        =      YES
    R4S            =       NO      REPL OTF      =       NO
    DIAG METHOD    =      SEM      FOLLOW ROOT   =        0
    PRECONDITIONER = DAVIDSON      UPDATE        = DAVIDSON
    S              =   0.0000      Ms0           =      YES
    GUESS VECTOR   =  H0BLOCK      OPENTYPE      =     NONE
    COLLAPSE SIZE  =        1      HD AVG        = EVANGELISTI
    MAX NUM VECS   =       25      REF SYM       =     AUTO
    IOPEN        =       NO

    EX ALLOW       =  1  1 
    STATE AVERAGE  =  0(1.00) 

   ==> CI Orbital and Space information <==

    RAS1 LVL      =       16      A RAS3 MAX    =        1
    RAS1 MIN      =       32      B RAS3 MAX    =        1
    A RAS1 LVL    =       16      RAS4 LVL      =       18
    A RAS1 MIN    =       15      A RAS4 MAX    =        0
    A RAS1 MAX    =       17      B RAS4 MAX    =        0
    B RAS1 LVL    =       16      RAS4 MAX      =        0
    B RAS1 MIN    =       15      A RAS34 MAX   =        1
    B RAS1 MAX    =       17      B RAS34 MAX   =        1
    RAS3 LVL      =       17      RAS34 MAX     =        2
    RAS3 MAX      =        2
   ------------------------------------
               Space    Total     A
   ------------------------------------
                 Nso       18    18
                 Nmo       18    18
               Ndocc       17    17
               Nsocc        0     0
   ------------------------------------
              CI Spaces
   ------------------------------------
        Dropped DOCC        0     0
                RAS1       17    17
                RAS2        0     0
                RAS3        1     1
                RAS4        0     0
      Active (total)       18    18
        Dropped UOCC        0     0
   ------------------------------------

   ==> Setting up CI strings <==

    There are 18 alpha and 18 beta strings
    The CI space requires 324 (3.24E+02) determinants and 4 blocks

   ==> Transforming CI integrals <==

	Presorting SO-basis two-electron integrals.
	Sorting File: SO Ints (nn|nn) nbuckets = 1
	Transforming the one-electron integrals and constructing Fock matrices
	Starting first half-transformation.
	Sorting half-transformed integrals.
	First half integral transformation complete.
	Starting second half-transformation.
	Two-electron integral transformation complete.

   ==> Starting CI iterations <==

    H0 Block Eigenvalue = -909.14559266

    Simultaneous Expansion Method (Block Davidson Method)
    Using 1 initial trial vectors

     Iter   Root       Total Energy       Delta E      C RMS

   @CI  0:     0   -909.145592661050   -9.8407E+02   9.0563E-12  
    Warning: Norm of correction (root 0) is < 1.0E-13
   @CI  1:     0   -909.145592661050   0.0000E+00   5.3126E-11 c

   ==> Energetics <==

    SCF energy =         -909.114905995754953
    Total CI energy =    -909.145592661049704

   ==> CISD root 0 information <==

    CISD Root 0 energy =  -909.145592661049704

   The 20 most important determinants:

    *   1    0.981740  (    0,    0)  1AX 2AX 3AX 4AX 5AX 6AX 7AX 8AX 9AX 10AX 11AX 12AX 13AX 14AX 15AX 16AX 17AX 
    *   2   -0.176197  (    5,    5)  1AX 2AX 3AX 4AX 5AX 6AX 7AX 8AX 9AX 10AX 11AX 12AX 14AX 15AX 16AX 17AX 18AX 
    *   3   -0.032957  (    1,    1)  1AX 2AX 3AX 4AX 5AX 6AX 7AX 8AX 9AX 10AX 11AX 12AX 13AX 14AX 15AX 16AX 18AX 
    *   4   -0.032957  (    2,    2)  1AX 2AX 3AX 4AX 5AX 6AX 7AX 8AX 9AX 10AX 11AX 12AX 13AX 14AX 15AX 17AX 18AX 
    *   5   -0.027887  (    6,    6)  1AX 2AX 3AX 4AX 5AX 6AX 7AX 8AX 9AX 10AX 11AX 13AX 14AX 15AX 16AX 17AX 18AX 
    *   6    0.024883  (    5,    7)  1AX 2AX 3AX 4AX 5AX 6AX 7AX 8AX 9AX 10AX 11AA 12AX 13AB 14AX 15AX 16AX 17AX 18AX 
    *   7    0.024883  (    7,    5)  1AX 2AX 3AX 4AX 5AX 6AX 7AX 8AX 9AX 10AX 11AB 12AX 13AA 14AX 15AX 16AX 17AX 18AX 
    *   8   -0.018582  (    7,    7)  1AX 2AX 3AX 4AX 5AX 6AX 7AX 8AX 9AX 10AX 12AX 13AX 14AX 15AX 16AX 17AX 18AX 
    *   9   -0.013936  (    0,    6)  1AX 2AX 3AX 4AX 5AX 6AX 7AX 8AX 9AX 10AX 11AX 12AA 13AX 14AX 15AX 16AX 17AX 18AB 
    *  10   -0.013936  (    6,    0)  1AX 2AX 3AX 4AX 5AX 6AX 7AX 8AX 9AX 10AX 11AX 12AB 13AX 14AX 15AX 16AX 17AX 18AA 
    *  11   -0.010304  (    4,    4)  1AX 2AX 3AX 4AX 5AX 6AX 7AX 8AX 9AX 10AX 11AX 12AX 13AX 15AX 16AX 17AX 18AX 
    *  12   -0.010304  (    3,    3)  1AX 2AX 3AX 4AX 5AX 6AX 7AX 8AX 9AX 10AX 11AX 12AX 13AX 14AX 16AX 17AX 18AX 
    *  13   -0.001352  (   12,   12)  1AX 2AX 3AX 4AX 5AX 7AX 8AX 9AX 10AX 11AX 12AX 13AX 14AX 15AX 16AX 17AX 18AX 
    *  14   -0.001340  (   13,   13)  1AX 2AX 3AX 4AX 6AX 7AX 8AX 9AX 10AX 11AX 12AX 13AX 14AX 15AX 16AX 17AX 18AX 
    *  15    0.000923  (    5,   12)  1AX 2AX 3AX 4AX 5AX 6AA 7AX 8AX 9AX 10AX 11AX 12AX 13AB 14AX 15AX 16AX 17AX 18AX 
    *  16    0.000923  (   12,    5)  1AX 2AX 3AX 4AX 5AX 6AB 7AX 8AX 9AX 10AX 11AX 12AX 13AA 14AX 15AX 16AX 17AX 18AX 
    *  17   -0.000431  (    7,   12)  1AX 2AX 3AX 4AX 5AX 6AA 7AX 8AX 9AX 10AX 11AB 12AX 13AX 14AX 15AX 16AX 17AX 18AX 
    *  18   -0.000431  (   12,    7)  1AX 2AX 3AX 4AX 5AX 6AB 7AX 8AX 9AX 10AX 11AA 12AX 13AX 14AX 15AX 16AX 17AX 18AX 
    *  19    0.000362  (   12,   14)  1AX 2AX 3AX 4AA 5AX 6AB 7AX 8AX 9AX 10AX 11AX 12AX 13AX 14AX 15AX 16AX 17AX 18AX 
    *  20    0.000362  (   14,   12)  1AX 2AX 3AX 4AB 5AX 6AA 7AX 8AX 9AX 10AX 11AX 12AX 13AX 14AX 15AX 16AX 17AX 18AX 

		 "A good bug is a dead bug" 

			 - Starship Troopers

		 "I didn't write FORTRAN.  That's the problem."

			 - Edward Valeev

*** tstart() called on trurls-machine
*** at Thu Mar  5 11:28:50 2020

   => Loading Basis Set <=

    Name: STO-3G
    Role: ORBITAL
    Keyword: BASIS
    atoms 1-2 entry CL         line   195 file /Users/teague/anaconda3/envs/gen_env/share/psi4/basis/sto-3g.gbs 


         ---------------------------------------------------------
                                   SCF
               by Justin Turney, Rob Parrish, Andy Simmonett
                          and Daniel G. A. Smith
                              RHF Reference
                        1 Threads,   7629 MiB Core
         ---------------------------------------------------------

  ==> Geometry <==

    Molecular point group: c1
    Full point group: D_inf_h

    Geometry (in Angstrom), charge = 0, multiplicity = 1:

       Center              X                  Y                   Z               Mass       
    ------------   -----------------  -----------------  -----------------  -----------------
         CL          -1.020601093719     0.000000000000     0.000000000000    34.968852682000
         CL           1.020601093719     0.000000000000     0.000000000000    34.968852682000

  Running in c1 symmetry.

  Rotational constants: A = ************  B =      0.23141  C =      0.23141 [cm^-1]
  Rotational constants: A = ************  B =   6937.35248  C =   6937.35248 [MHz]
  Nuclear repulsion =   74.922619045207185

  Charge       = 0
  Multiplicity = 1
  Electrons    = 34
  Nalpha       = 17
  Nbeta        = 17

  ==> Algorithm <==

  SCF Algorithm Type is PK.
  DIIS enabled.
  MOM disabled.
  Fractional occupation disabled.
  Guess Type is SAD.
  Energy threshold   = 1.00e-06
  Density threshold  = 1.00e-06
  Integral threshold = 0.00e+00

  ==> Primary Basis <==

  Basis Set: STO-3G
    Blend: STO-3G
    Number of shells: 10
    Number of basis function: 18
    Number of Cartesian functions: 18
    Spherical Harmonics?: true
    Max angular momentum: 1

  ==> Pre-Iterations <==

   -------------------------------------------------------
    Irrep   Nso     Nmo     Nalpha   Nbeta   Ndocc  Nsocc
   -------------------------------------------------------
     A         18      18       0       0       0       0
   -------------------------------------------------------
    Total      18      18      17      17      17       0
   -------------------------------------------------------

  ==> Integral Setup <==

  Using in-core PK algorithm.
   Calculation information:
      Number of atoms:                   2
      Number of AO shells:              10
      Number of primitives:             30
      Number of atomic orbitals:        18
      Number of basis functions:        18

      Integral cutoff                 1.00e-12
      Number of threads:                 1

  Performing in-core PK
  Using 29412 doubles for integral storage.
  We computed 1263 shell quartets total.
  Whereas there are 1540 unique shell quartets.

  ==> DiskJK: Disk-Based J/K Matrices <==

    J tasked:                  Yes
    K tasked:                  Yes
    wK tasked:                  No
    Memory [MiB]:             5722
    Schwarz Cutoff:          1E-12

    OpenMP threads:              1

  Minimum eigenvalue in the overlap matrix is 4.6846168527E-01.
  Using Symmetric Orthogonalization.

  SCF Guess: Superposition of Atomic Densities via on-the-fly atomic UHF.

  ==> Iterations <==

                        Total Energy        Delta E     RMS |[F,P]|

   @RHF iter SAD:  -908.71659380884034   -9.08717e+02   0.00000e+00 
   @RHF iter   1:  -909.10511055078132   -3.88517e-01   5.26763e-03 DIIS
   @RHF iter   2:  -909.11451523269363   -9.40468e-03   1.01736e-03 DIIS
   @RHF iter   3:  -909.11490575512983   -3.90522e-04   3.15462e-05 DIIS
   @RHF iter   4:  -909.11490599575507   -2.40625e-07   2.57387e-07 DIIS
  Energy and wave function converged.


  ==> Post-Iterations <==

    Orbital Energies [Eh]
    ---------------------

    Doubly Occupied:                                                      

       1A   -103.794921     2A   -103.794871     3A    -10.472579  
       4A    -10.470461     5A     -7.917839     6A     -7.915486  
       7A     -7.909575     8A     -7.909575     9A     -7.908747  
      10A     -7.908747    11A     -1.141206    12A     -0.942889  
      13A     -0.523736    14A     -0.519160    15A     -0.519160  
      16A     -0.410256    17A     -0.410256  

    Virtual:                                                              

      18A      0.111244  

    Final Occupation by Irrep:
              A 
    DOCC [    17 ]

  @RHF Final Energy:  -909.11490599575507

   => Energetics <=

    Nuclear Repulsion Energy =             74.9226190452071847
    One-Electron Energy =               -1407.1361131820599439
    Two-Electron Energy =                 423.0985881410976504
    Total Energy =                       -909.1149059957549525

Computation Completed


Properties will be evaluated at   0.000000,   0.000000,   0.000000 [a0]

Properties computed using the SCF density matrix

  Nuclear Dipole Moment: [e a0]
     X:     0.0000      Y:     0.0000      Z:     0.0000

  Electronic Dipole Moment: [e a0]
     X:     0.0000      Y:    -0.0000      Z:    -0.0000

  Dipole Moment: [e a0]
     X:     0.0000      Y:    -0.0000      Z:    -0.0000     Total:     0.0000

  Dipole Moment: [D]
     X:     0.0000      Y:    -0.0000      Z:    -0.0000     Total:     0.0000


*** tstop() called on trurls-machine at Thu Mar  5 11:28:51 2020
Module time:
	user time   =       0.14 seconds =       0.00 minutes
	system time =       0.01 seconds =       0.00 minutes
	total time  =          1 seconds =       0.02 minutes
Total time:
	user time   =       1.26 seconds =       0.02 minutes
	system time =       0.10 seconds =       0.00 minutes
	total time  =          2 seconds =       0.03 minutes
 MINTS: Wrapper to libmints.
   by Justin Turney

   Calculation information:
      Number of threads:                 1
      Number of atoms:                   2
      Number of AO shells:              10
      Number of SO shells:              10
      Number of primitives:             30
      Number of atomic orbitals:        18
      Number of basis functions:        18

      Number of irreps:                  1
      Integral cutoff                 0.00e+00
      Number of functions per irrep: [  18 ]

 OEINTS: Overlap, kinetic, potential, dipole, and quadrupole integrals
         stored in file 35.

      Computing two-electron integrals...done
      Computed 4350 non-zero two-electron integrals.
        Stored in file 33.


         ---------------------------------------------------------
                          Configuration Interaction
                            (a 'D E T C I' module)

                 C. David Sherrill, Daniel G. A. Smith, and
                              Matt L. Leininger
         ---------------------------------------------------------


   ==> Parameters <==

    EX LEVEL       =       34      H0 BLOCKSIZE  =     1000
    VAL EX LEVEL   =        0      H0 GUESS SIZE =     1000
    H0COUPLINGSIZE =        0      H0 COUPLING   =       NO
    MAXITER        =       24      NUM PRINT     =       20
    NUM ROOTS      =        1      ICORE         =        1
    PRINT LVL      =        1      FCI           =      YES
    R CONV         = 1.00e-06      MIXED         =      YES
    E CONV         = 1.00e-06      MIXED4        =      YES
    R4S            =       NO      REPL OTF      =       NO
    DIAG METHOD    =      SEM      FOLLOW ROOT   =        0
    PRECONDITIONER = DAVIDSON      UPDATE        = DAVIDSON
    S              =   0.0000      Ms0           =      YES
    GUESS VECTOR   =  H0BLOCK      OPENTYPE      =     NONE
    COLLAPSE SIZE  =        1      HD AVG        = EVANGELISTI
    MAX NUM VECS   =       25      REF SYM       =     AUTO
    IOPEN        =       NO

    EX ALLOW       =  1  1  1  1  1  1  1  1  1  1  1  1  1  1  1  1  1  1  1  1  1  1  1  1  1  1  1  1  1  1  1  1  1  1 
    STATE AVERAGE  =  0(1.00) 

   ==> CI Orbital and Space information <==

   ------------------------------------
               Space    Total     A
   ------------------------------------
                 Nso       18    18
                 Nmo       18    18
               Ndocc       17    17
               Nsocc        0     0
   ------------------------------------
              CI Spaces
   ------------------------------------
        Dropped DOCC        0     0
              Active       18    18
        Dropped UOCC        0     0
   ------------------------------------

   ==> Setting up CI strings <==

    There are 18 alpha and 18 beta strings
    The CI space requires 324 (3.24E+02) determinants and 1 blocks

   ==> Transforming CI integrals <==

	Presorting SO-basis two-electron integrals.
	Sorting File: SO Ints (nn|nn) nbuckets = 1
	Transforming the one-electron integrals and constructing Fock matrices
	Starting first half-transformation.
	Sorting half-transformed integrals.
	First half integral transformation complete.
	Starting second half-transformation.
	Two-electron integral transformation complete.

   ==> Starting CI iterations <==

    H0 Block Eigenvalue = -909.14559266

    Simultaneous Expansion Method (Block Davidson Method)
    Using 1 initial trial vectors

     Iter   Root       Total Energy       Delta E      C RMS

   @CI  0:     0   -909.145592661049   -9.8407E+02   9.0574E-12  
    Warning: Norm of correction (root 0) is < 1.0E-13
   @CI  1:     0   -909.145592661049   -1.1369E-13   5.3699E-11 c

   ==> Energetics <==

    SCF energy =         -909.114905995754953
    Total CI energy =    -909.145592661049363

   ==> FCI root 0 information <==

    FCI Root 0 energy =  -909.145592661049363

   The 20 most important determinants:

    *   1    0.981740  (    0,    0)  1AX 2AX 3AX 4AX 5AX 6AX 7AX 8AX 9AX 10AX 11AX 12AX 13AX 14AX 15AX 16AX 17AX 
    *   2   -0.176197  (    5,    5)  1AX 2AX 3AX 4AX 5AX 6AX 7AX 8AX 9AX 10AX 11AX 12AX 14AX 15AX 16AX 17AX 18AX 
    *   3   -0.032957  (    1,    1)  1AX 2AX 3AX 4AX 5AX 6AX 7AX 8AX 9AX 10AX 11AX 12AX 13AX 14AX 15AX 16AX 18AX 
    *   4   -0.032957  (    2,    2)  1AX 2AX 3AX 4AX 5AX 6AX 7AX 8AX 9AX 10AX 11AX 12AX 13AX 14AX 15AX 17AX 18AX 
    *   5   -0.027887  (    6,    6)  1AX 2AX 3AX 4AX 5AX 6AX 7AX 8AX 9AX 10AX 11AX 13AX 14AX 15AX 16AX 17AX 18AX 
    *   6    0.024883  (    5,    7)  1AX 2AX 3AX 4AX 5AX 6AX 7AX 8AX 9AX 10AX 11AA 12AX 13AB 14AX 15AX 16AX 17AX 18AX 
    *   7    0.024883  (    7,    5)  1AX 2AX 3AX 4AX 5AX 6AX 7AX 8AX 9AX 10AX 11AB 12AX 13AA 14AX 15AX 16AX 17AX 18AX 
    *   8   -0.018582  (    7,    7)  1AX 2AX 3AX 4AX 5AX 6AX 7AX 8AX 9AX 10AX 12AX 13AX 14AX 15AX 16AX 17AX 18AX 
    *   9   -0.013936  (    0,    6)  1AX 2AX 3AX 4AX 5AX 6AX 7AX 8AX 9AX 10AX 11AX 12AA 13AX 14AX 15AX 16AX 17AX 18AB 
    *  10   -0.013936  (    6,    0)  1AX 2AX 3AX 4AX 5AX 6AX 7AX 8AX 9AX 10AX 11AX 12AB 13AX 14AX 15AX 16AX 17AX 18AA 
    *  11   -0.010304  (    4,    4)  1AX 2AX 3AX 4AX 5AX 6AX 7AX 8AX 9AX 10AX 11AX 12AX 13AX 15AX 16AX 17AX 18AX 
    *  12   -0.010304  (    3,    3)  1AX 2AX 3AX 4AX 5AX 6AX 7AX 8AX 9AX 10AX 11AX 12AX 13AX 14AX 16AX 17AX 18AX 
    *  13   -0.001352  (   12,   12)  1AX 2AX 3AX 4AX 5AX 7AX 8AX 9AX 10AX 11AX 12AX 13AX 14AX 15AX 16AX 17AX 18AX 
    *  14   -0.001340  (   13,   13)  1AX 2AX 3AX 4AX 6AX 7AX 8AX 9AX 10AX 11AX 12AX 13AX 14AX 15AX 16AX 17AX 18AX 
    *  15    0.000923  (    5,   12)  1AX 2AX 3AX 4AX 5AX 6AA 7AX 8AX 9AX 10AX 11AX 12AX 13AB 14AX 15AX 16AX 17AX 18AX 
    *  16    0.000923  (   12,    5)  1AX 2AX 3AX 4AX 5AX 6AB 7AX 8AX 9AX 10AX 11AX 12AX 13AA 14AX 15AX 16AX 17AX 18AX 
    *  17   -0.000431  (    7,   12)  1AX 2AX 3AX 4AX 5AX 6AA 7AX 8AX 9AX 10AX 11AB 12AX 13AX 14AX 15AX 16AX 17AX 18AX 
    *  18   -0.000431  (   12,    7)  1AX 2AX 3AX 4AX 5AX 6AB 7AX 8AX 9AX 10AX 11AA 12AX 13AX 14AX 15AX 16AX 17AX 18AX 
    *  19    0.000362  (   12,   14)  1AX 2AX 3AX 4AA 5AX 6AB 7AX 8AX 9AX 10AX 11AX 12AX 13AX 14AX 15AX 16AX 17AX 18AX 
    *  20    0.000362  (   14,   12)  1AX 2AX 3AX 4AB 5AX 6AA 7AX 8AX 9AX 10AX 11AX 12AX 13AX 14AX 15AX 16AX 17AX 18AX 

		 "A good bug is a dead bug" 

			 - Starship Troopers

		 "I didn't write FORTRAN.  That's the problem."

			 - Edward Valeev

*** tstart() called on trurls-machine
*** at Thu Mar  5 11:28:51 2020

   => Loading Basis Set <=

    Name: STO-3G
    Role: ORBITAL
    Keyword: BASIS
    atoms 1-2 entry CL         line   195 file /Users/teague/anaconda3/envs/gen_env/share/psi4/basis/sto-3g.gbs 


         ---------------------------------------------------------
                                   SCF
               by Justin Turney, Rob Parrish, Andy Simmonett
                          and Daniel G. A. Smith
                              RHF Reference
                        1 Threads,   7629 MiB Core
         ---------------------------------------------------------

  ==> Geometry <==

    Molecular point group: c1
    Full point group: D_inf_h

    Geometry (in Angstrom), charge = 0, multiplicity = 1:

       Center              X                  Y                   Z               Mass       
    ------------   -----------------  -----------------  -----------------  -----------------
         CL          -1.020601093719     0.000000000000     0.000000000000    34.968852682000
         CL           1.020601093719     0.000000000000     0.000000000000    34.968852682000

  Running in c1 symmetry.

  Rotational constants: A = ************  B =      0.23141  C =      0.23141 [cm^-1]
  Rotational constants: A = ************  B =   6937.35248  C =   6937.35248 [MHz]
  Nuclear repulsion =   74.922619045207185

  Charge       = 0
  Multiplicity = 1
  Electrons    = 34
  Nalpha       = 17
  Nbeta        = 17

  ==> Algorithm <==

  SCF Algorithm Type is PK.
  DIIS enabled.
  MOM disabled.
  Fractional occupation disabled.
  Guess Type is SAD.
  Energy threshold   = 1.00e-06
  Density threshold  = 1.00e-06
  Integral threshold = 0.00e+00

  ==> Primary Basis <==

  Basis Set: STO-3G
    Blend: STO-3G
    Number of shells: 10
    Number of basis function: 18
    Number of Cartesian functions: 18
    Spherical Harmonics?: true
    Max angular momentum: 1

  ==> Pre-Iterations <==

   -------------------------------------------------------
    Irrep   Nso     Nmo     Nalpha   Nbeta   Ndocc  Nsocc
   -------------------------------------------------------
     A         18      18       0       0       0       0
   -------------------------------------------------------
    Total      18      18      17      17      17       0
   -------------------------------------------------------

  ==> Integral Setup <==

  Using in-core PK algorithm.
   Calculation information:
      Number of atoms:                   2
      Number of AO shells:              10
      Number of primitives:             30
      Number of atomic orbitals:        18
      Number of basis functions:        18

      Integral cutoff                 1.00e-12
      Number of threads:                 1

  Performing in-core PK
  Using 29412 doubles for integral storage.
  We computed 1263 shell quartets total.
  Whereas there are 1540 unique shell quartets.

  ==> DiskJK: Disk-Based J/K Matrices <==

    J tasked:                  Yes
    K tasked:                  Yes
    wK tasked:                  No
    Memory [MiB]:             5722
    Schwarz Cutoff:          1E-12

    OpenMP threads:              1

  Minimum eigenvalue in the overlap matrix is 4.6846168527E-01.
  Using Symmetric Orthogonalization.

  SCF Guess: Superposition of Atomic Densities via on-the-fly atomic UHF.

  ==> Iterations <==

                        Total Energy        Delta E     RMS |[F,P]|

   @RHF iter SAD:  -908.71659380884034   -9.08717e+02   0.00000e+00 
   @RHF iter   1:  -909.10511055078132   -3.88517e-01   5.26763e-03 DIIS
   @RHF iter   2:  -909.11451523269363   -9.40468e-03   1.01736e-03 DIIS
   @RHF iter   3:  -909.11490575512983   -3.90522e-04   3.15462e-05 DIIS
   @RHF iter   4:  -909.11490599575507   -2.40625e-07   2.57387e-07 DIIS
  Energy and wave function converged.


  ==> Post-Iterations <==

    Orbital Energies [Eh]
    ---------------------

    Doubly Occupied:                                                      

       1A   -103.794921     2A   -103.794871     3A    -10.472579  
       4A    -10.470461     5A     -7.917839     6A     -7.915486  
       7A     -7.909575     8A     -7.909575     9A     -7.908747  
      10A     -7.908747    11A     -1.141206    12A     -0.942889  
      13A     -0.523736    14A     -0.519160    15A     -0.519160  
      16A     -0.410256    17A     -0.410256  

    Virtual:                                                              

      18A      0.111244  

    Final Occupation by Irrep:
              A 
    DOCC [    17 ]

  @RHF Final Energy:  -909.11490599575507

   => Energetics <=

    Nuclear Repulsion Energy =             74.9226190452071847
    One-Electron Energy =               -1407.1361131820599439
    Two-Electron Energy =                 423.0985881410976504
    Total Energy =                       -909.1149059957549525

Computation Completed


Properties will be evaluated at   0.000000,   0.000000,   0.000000 [a0]

Properties computed using the SCF density matrix

  Nuclear Dipole Moment: [e a0]
     X:     0.0000      Y:     0.0000      Z:     0.0000

  Electronic Dipole Moment: [e a0]
     X:     0.0000      Y:    -0.0000      Z:    -0.0000

  Dipole Moment: [e a0]
     X:     0.0000      Y:    -0.0000      Z:    -0.0000     Total:     0.0000

  Dipole Moment: [D]
     X:     0.0000      Y:    -0.0000      Z:    -0.0000     Total:     0.0000


*** tstop() called on trurls-machine at Thu Mar  5 11:28:51 2020
Module time:
	user time   =       0.13 seconds =       0.00 minutes
	system time =       0.01 seconds =       0.00 minutes
	total time  =          0 seconds =       0.00 minutes
Total time:
	user time   =       1.94 seconds =       0.03 minutes
	system time =       0.18 seconds =       0.00 minutes
	total time  =          2 seconds =       0.03 minutes
 MINTS: Wrapper to libmints.
   by Justin Turney

   Calculation information:
      Number of threads:                 1
      Number of atoms:                   2
      Number of AO shells:              10
      Number of SO shells:              10
      Number of primitives:             30
      Number of atomic orbitals:        18
      Number of basis functions:        18

      Number of irreps:                  1
      Integral cutoff                 0.00e+00
      Number of functions per irrep: [  18 ]

 OEINTS: Overlap, kinetic, potential, dipole, and quadrupole integrals
         stored in file 35.

      Computing two-electron integrals...done
      Computed 4350 non-zero two-electron integrals.
        Stored in file 33.


*** tstart() called on trurls-machine
*** at Thu Mar  5 11:28:51 2020


	Wfn Parameters:
	--------------------
	Wavefunction         = CCSD
	Number of irreps     = 1
	Number of MOs        = 18
	Number of active MOs = 18
	AO-Basis             = NONE
	Semicanonical        = false
	Reference            = RHF
	Print Level          = 1

	IRREP	# MOs	# FZDC	# DOCC	# SOCC	# VIRT	# FZVR
	-----	-----	------	------	------	------	------
	 A	   18	    0	    17	    0	    1	    0
	Transforming integrals...
	IWL integrals will be deleted.
	(OO|OO)...
	Presorting SO-basis two-electron integrals.
	Sorting File: SO Ints (nn|nn) nbuckets = 1
	Transforming the one-electron integrals and constructing Fock matrices
	Starting first half-transformation.
	Sorting half-transformed integrals.
	First half integral transformation complete.
	Starting second half-transformation.
	Two-electron integral transformation complete.
	(OO|OV)...
	Starting second half-transformation.
	Two-electron integral transformation complete.
	(OO|VV)...
	Starting second half-transformation.
	Two-electron integral transformation complete.
	(OV|OO)...
	Starting first half-transformation.
	Sorting half-transformed integrals.
	First half integral transformation complete.
	Starting second half-transformation.
	Two-electron integral transformation complete.
	(OV|OV)...
	Starting second half-transformation.
	Two-electron integral transformation complete.
	(OV|VV)...
	Starting second half-transformation.
	Two-electron integral transformation complete.
	(VV|OO)...
	Starting first half-transformation.
	Sorting half-transformed integrals.
	First half integral transformation complete.
	Starting second half-transformation.
	Two-electron integral transformation complete.
	(VV|OV)...
	Starting second half-transformation.
	Two-electron integral transformation complete.
	(VV|VV)...
	Starting second half-transformation.
	Two-electron integral transformation complete.
	Frozen core energy     =      0.00000000000000

	Size of irrep 0 of <ab|cd> integrals:      0.000 (MW) /      0.000 (MB)
	Total:                                     0.000 (MW) /      0.000 (MB)

	Size of irrep 0 of <ia|bc> integrals:      0.000 (MW) /      0.000 (MB)
	Total:                                     0.000 (MW) /      0.000 (MB)

	Size of irrep 0 of tijab amplitudes:       0.000 (MW) /      0.002 (MB)
	Total:                                     0.000 (MW) /      0.002 (MB)

	Nuclear Rep. energy          =     74.92261904520718
	SCF energy                   =   -909.11490599575507
	One-electron energy          =  -1407.13613172533223
	Two-electron energy          =    423.09860668434561
	Reference energy             =   -909.11490599577940

*** tstop() called on trurls-machine at Thu Mar  5 11:28:51 2020
Module time:
	user time   =       0.01 seconds =       0.00 minutes
	system time =       0.05 seconds =       0.00 minutes
	total time  =          0 seconds =       0.00 minutes
Total time:
	user time   =       1.96 seconds =       0.03 minutes
	system time =       0.23 seconds =       0.00 minutes
	total time  =          2 seconds =       0.03 minutes
            **************************
            *                        *
            *        CCENERGY        *
            *                        *
            **************************

    Nuclear Rep. energy (wfn)     =   74.922619045207185
    SCF energy          (wfn)     = -909.114905995755066
    Reference energy    (file100) = -909.114905995779395

    Input parameters:
    -----------------
    Wave function   =     CCSD
    Reference wfn   =     RHF
    Brueckner       =     No
    Memory (Mbytes) =     8000.0
    Maxiter         =   1000000
    R_Convergence   =     1.0e-06
    E_Convergence   =     1.0e-06
    Restart         =     Yes
    DIIS            =     Yes
    AO Basis        =     NONE
    ABCD            =     NEW
    Cache Level     =     2
    Cache Type      =     LOW
    Print Level     =     1
    Num. of threads =     1
    # Amps to Print =     1000000
    Print MP2 Amps? =     No
    Analyze T2 Amps =     No
    Print Pair Ener =     No
    Local CC        =     No
    SCS-MP2         =     False
    SCSN-MP2        =     False
    SCS-CCSD        =     False

MP2 correlation energy -0.0202491236805885
                Solving CC Amplitude Equations
                ------------------------------
  Iter             Energy              RMS        T1Diag      D1Diag    New D1Diag    D2Diag
  ----     ---------------------    ---------   ----------  ----------  ----------   --------
     0        -0.020249123680588    0.000e+00    0.000000    0.000000    0.000000    0.121708
     1        -0.026503507019478    4.337e-02    0.001183    0.006898    0.006898    0.162376
     2        -0.030566947086187    1.863e-02    0.002290    0.013354    0.013354    0.190996
     3        -0.030663749092950    2.200e-03    0.002418    0.014100    0.014100    0.192277
     4        -0.030693315862988    1.063e-03    0.002459    0.014338    0.014338    0.192696
     5        -0.030679654318500    4.047e-04    0.002443    0.014244    0.014244    0.192686
     6        -0.030687757047323    7.974e-05    0.002436    0.014202    0.014202    0.192758
     7        -0.030686746487912    1.066e-05    0.002435    0.014196    0.014196    0.192753
     8        -0.030686517238692    2.964e-06    0.002435    0.014196    0.014196    0.192752
     9        -0.030686590656475    5.440e-07    0.002435    0.014196    0.014196    0.192753

    Iterations converged.


    Largest TIA Amplitudes:
             11   0         0.0141951061
              4   0         0.0001711339
              2   0        -0.0000012461
              0   0         0.0000009616

    Largest TIjAb Amplitudes:
     12  12   0   0        -0.1794731968
     15  15   0   0        -0.0335698452
     16  16   0   0        -0.0335698452
     11  11   0   0        -0.0286069209
     10  12   0   0         0.0253460205
     12  10   0   0         0.0253460205
     10  10   0   0        -0.0189278313
     13  13   0   0        -0.0104955472
     14  14   0   0        -0.0104955472
      5   5   0   0        -0.0013767146
      4   4   0   0        -0.0013645264
      5  12   0   0        -0.0009399133
     12   5   0   0        -0.0009399133
      5  10   0   0         0.0004385825
     10   5   0   0         0.0004385825
      3   5   0   0         0.0003688935
      5   3   0   0         0.0003688935
      2   4   0   0         0.0003670113
      4   2   0   0         0.0003670113
      2  11   0   0         0.0003622556
     11   2   0   0         0.0003622556
      3  12   0   0         0.0002949850
     12   3   0   0         0.0002949850
      2   2   0   0        -0.0002454143
      3   3   0   0        -0.0002402026
      8  14   0   0         0.0001711924
      9  13   0   0        -0.0001711924
     13   9   0   0        -0.0001711924
     14   8   0   0         0.0001711924
      3  10   0   0         0.0001455698
     10   3   0   0         0.0001455698
      6  16   0   0         0.0001376819
      7  15   0   0         0.0001376819
     15   7   0   0         0.0001376819
     16   6   0   0         0.0001376819
      4  11   0   0         0.0001228545
     11   4   0   0         0.0001228545
      6   6   0   0        -0.0000777352
      7   7   0   0        -0.0000777352
      8   8   0   0        -0.0000755118
      9   9   0   0        -0.0000755118
      1   3   0   0         0.0000203003
      3   1   0   0         0.0000203003
      0   2   0   0         0.0000200729
      2   0   0   0         0.0000200729
      0   0   0   0        -0.0000186479
      1   1   0   0        -0.0000186288
      0  11   0   0         0.0000146827
     11   0   0   0         0.0000146827
      1  10   0   0         0.0000122142
     10   1   0   0         0.0000122142
      6  15   0   0         0.0000089657
      7  16   0   0        -0.0000089657
     15   6   0   0         0.0000089657
     16   7   0   0        -0.0000089657
      8  13   0   0         0.0000086856
      9  14   0   0         0.0000086856
     13   8   0   0         0.0000086856
     14   9   0   0         0.0000086856
      1   5   0   0        -0.0000032636
      5   1   0   0        -0.0000032636
      0   4   0   0        -0.0000031383
      4   0   0   0        -0.0000031383
      1  12   0   0         0.0000012121
     12   1   0   0         0.0000012121

    SCF energy       (wfn)                    = -909.114905995755066
    Reference energy (file100)                = -909.114905995779395

    Opposite-spin MP2 correlation energy      =   -0.020249123680588
    Same-spin MP2 correlation energy          =    0.000000000000000
    MP2 correlation energy                    =   -0.020249123680588
      * MP2 total energy                      = -909.135155119460023

    Opposite-spin CCSD correlation energy     =   -0.030686590656475
    Same-spin CCSD correlation energy         =    0.000000000000000
    CCSD correlation energy                   =   -0.030686590656475
      * CCSD total energy                     = -909.145592586435896


    Psi4 stopped on: Thursday, 05 March 2020 11:28AM
    Psi4 wall time for execution: 0:00:03.60

*** Psi4 exiting successfully. Buy a developer a beer!
