
    -----------------------------------------------------------------------
          Psi4: An Open-Source Ab Initio Electronic Structure Package
                               Psi4 1.3.2 release

                         Git: Rev {HEAD} ecbda83 


    R. M. Parrish, L. A. Burns, D. G. A. Smith, A. C. Simmonett,
    A. E. DePrince III, E. G. Hohenstein, U. Bozkaya, A. Yu. Sokolov,
    R. Di Remigio, R. M. Richard, J. F. Gonthier, A. M. James,
    H. R. McAlexander, A. Kumar, M. Saitow, X. Wang, B. P. Pritchard,
    P. Verma, H. F. Schaefer III, K. Patkowski, R. A. King, E. F. Valeev,
    F. A. Evangelista, J. M. Turney, T. D. Crawford, and C. D. Sherrill,
    J. Chem. Theory Comput. 13(7) pp 3185--3197 (2017).
    (doi: 10.1021/acs.jctc.7b00174)


                         Additional Contributions by
    P. Kraus, H. Kruse, M. H. Lechner, M. C. Schieber, R. A. Shaw,
    A. Alenaizan, R. Galvelis, Z. L. Glick, S. Lehtola, and J. P. Misiewicz

    -----------------------------------------------------------------------


    Psi4 started on: Thursday, 05 March 2020 02:27PM

    Process ID: 34998
    Host:       trurls-machine
    PSIDATADIR: /Users/teague/anaconda3/envs/gen_env/share/psi4
    Memory:     500.0 MiB
    Threads:    1
    
  ==> Input File <==

--------------------------------------------------------------------------
"""This is a template for psi4 input format."""
import numpy
import sys

from openfermion.config import *
from openfermion.hamiltonians import MolecularData
from openfermion.ops import general_basis_change

from numpy import array

sys.path.append('/Users/teague/.local/lib/python3.7/site-packages/openfermionpsi4')
from _psi4_conversion_functions import *


# Set memory that job can use in megabytes.
memory 8000 mb

# Initialize molecular data.
_description = 'NIST'
if _description == 'None':
    _description = None
molecule = MolecularData([('C', (0.9048, 1.0724, 1.4891)), ('N', (2.0939, 1.7762, 1.0265)), ('C', (3.3292, 1.1723, 1.5088)), ('H', (0.8277, 1.1701, 2.579)), ('H', (0.0118, 1.5305, 1.0506)), ('H', (0.8918, -0.0094, 1.2525)), ('H', (2.102, 1.7826, 0.0086)), ('H', (4.1886, 1.7025, 1.0846)), ('H', (3.3803, 1.2751, 2.5998)), ('H', (3.4351, 0.0954, 1.273))],
                         'sto-3g',
                         1,
                         0,
                         _description,
                          filename='molecule_data/Dimethylamine_sto-3g_singlet_NIST')

# Set molecular geometry and symmetry.
molecule mol {
C 0.9048 1.0724 1.4891
N 2.0939 1.7762 1.0265
C 3.3292 1.1723 1.5088
H 0.8277 1.1701 2.579
H 0.0118 1.5305 1.0506
H 0.8918 -0.0094 1.2525
H 2.102 1.7826 0.0086
H 4.1886 1.7025 1.0846
H 3.3803 1.2751 2.5998
H 3.4351 0.0954 1.273
symmetry c1
}
mol.set_multiplicity(1)
mol.set_molecular_charge(0)

# Set reference and guess.
if molecule.multiplicity == 1:
    set reference rhf
    set guess sad
else:
    set reference rohf
    set guess gwh

# Set global parameters of calculation.
set globals {
    basis sto-3g
    freeze_core false
    fail_on_maxiter True
    df_scf_guess false
    opdm true
    tpdm true
    soscf false
    scf_type pk
    maxiter 1e6
    num_amps_print 1e6
    r_convergence 1e-6
    d_convergence 1e-6
    e_convergence 1e-6
    ints_tolerance EQUALITY_TOLERANCE
    damping_percentage 0
}

# Run self-consistent field (SCF) calculation.
if True:
    try:
        hf_energy, hf_wavefunction = energy('scf', return_wfn=True)
        if False:
            print('Hartree-Fock energy for {} ({} electrons) is {}.'.format(
                molecule.name, molecule.n_electrons, hf_energy))
    except:
        if False:
            print('WARNING: SCF calculation failed.')
        else:
            raise
    finally:
        # Get orbitals and Fock matrix.
        molecule.hf_energy = hf_energy
        molecule.nuclear_repulsion = mol.nuclear_repulsion_energy()
        molecule.canonical_orbitals = numpy.asarray(hf_wavefunction.Ca())
        molecule.overlap_integrals = numpy.asarray(hf_wavefunction.S())
        molecule.n_orbitals = molecule.canonical_orbitals.shape[0]
        molecule.n_qubits = 2 * molecule.n_orbitals
        molecule.orbital_energies = numpy.asarray(hf_wavefunction.epsilon_a())
        molecule.fock_matrix = numpy.asarray(hf_wavefunction.Fa())

        # Get integrals using MintsHelper.
        mints = MintsHelper(hf_wavefunction.basisset())
        molecule.one_body_integrals = general_basis_change(
            numpy.asarray(mints.ao_kinetic()), molecule.canonical_orbitals, (1, 0))
        molecule.one_body_integrals += general_basis_change(
            numpy.asarray(mints.ao_potential()), molecule.canonical_orbitals, (1, 0))
        two_body_integrals = numpy.asarray(mints.ao_eri())
        two_body_integrals.reshape((molecule.n_orbitals, molecule.n_orbitals,
                                    molecule.n_orbitals, molecule.n_orbitals))
        two_body_integrals = numpy.einsum('psqr', two_body_integrals)
        two_body_integrals = general_basis_change(
            two_body_integrals, molecule.canonical_orbitals, (1, 1, 0, 0))
        molecule.two_body_integrals = two_body_integrals
        molecule.save()


# Perform MP2 energy calculation if there are at least two electrons.
if True:
    try:
        assert molecule.n_electrons > 1
        mp2_energy = energy('mp2')
        if False:
            print('MP2 energy for {} ({} electrons) is {}.'.format(
                molecule.name, molecule.n_electrons, mp2_energy))
    except:
        if False:
            print('WARNING: MP2 calculation failed.')
        else:
            raise
    else:
        molecule.mp2_energy = mp2_energy
        molecule.save()


# Perform configuration interaction singles and doubles (CISD) calculation.
if True:
    set qc_module detci
    try:
        cisd_energy, cisd_wavefunction = energy('cisd', return_wfn=True)
        if False:
            print('CISD energy for {} ({} electrons) is {}.'.format(
                molecule.name, molecule.n_electrons, cisd_energy))
    except:
        if False:
            print('WARNING: CISD calculation failed.')
        else:
            raise
    else:
        # For the functions below, "a" and "b" refer to "up and "down" spins.
        molecule.cisd_energy = cisd_energy

        # Get 1-RDM from CISD calculation.
        cisd_one_rdm_a = numpy.array(cisd_wavefunction.get_opdm(
            0, 0, 'A', True)).reshape(molecule.n_orbitals, molecule.n_orbitals)
        cisd_one_rdm_b = numpy.array(cisd_wavefunction.get_opdm(
            0, 0, 'B', True)).reshape(molecule.n_orbitals, molecule.n_orbitals)

        # Get 2-RDM from CISD calculation.
        cisd_two_rdm_aa = numpy.array(cisd_wavefunction.get_tpdm(
            'AA', False)).reshape(molecule.n_orbitals, molecule.n_orbitals,
                                  molecule.n_orbitals, molecule.n_orbitals)
        cisd_two_rdm_ab = numpy.array(cisd_wavefunction.get_tpdm(
            'AB', False)).reshape(molecule.n_orbitals, molecule.n_orbitals,
                                  molecule.n_orbitals, molecule.n_orbitals)
        cisd_two_rdm_bb = numpy.array(cisd_wavefunction.get_tpdm(
            'BB', False)).reshape(molecule.n_orbitals, molecule.n_orbitals,
                                  molecule.n_orbitals, molecule.n_orbitals)

        # Get overall RDMs.
        cisd_one_rdm, cisd_two_rdm = unpack_spatial_rdm(
            cisd_one_rdm_a, cisd_one_rdm_b, cisd_two_rdm_aa,
            cisd_two_rdm_ab, cisd_two_rdm_bb)

        # Store 1-RDM in molecule file, 2-RDM separately in other file.
        molecule.cisd_one_rdm = cisd_one_rdm
        molecule.cisd_two_rdm = cisd_two_rdm
        molecule.save()


# Perform exact diagonalization.
if True:
    set qc_module detci
    try:
        fci_energy, fci_wavefunction = energy('fci', return_wfn=True)
        if False:
            print('FCI energy for {} ({} electrons) is {}.'.format(
                molecule.name, molecule.n_electrons, fci_energy))
    except:
        if False:
            print('WARNING: FCI calculation failed.')
        else:
            raise
    finally:
        # For the functions below, "a" and "b" refer to "up and "down" spins.
        molecule.fci_energy = fci_energy

        # Get 1-RDM from FCI calculation.
        fci_one_rdm_a = numpy.array(fci_wavefunction.get_opdm(
            0, 0, 'A', True)).reshape(molecule.n_orbitals, molecule.n_orbitals)
        fci_one_rdm_b = numpy.array(fci_wavefunction.get_opdm(
            0, 0, 'B', True)).reshape(molecule.n_orbitals, molecule.n_orbitals)

        # Get 2-RDM from FCI calculation.
        fci_two_rdm_aa = numpy.array(fci_wavefunction.get_tpdm(
            'AA', False)).reshape(molecule.n_orbitals, molecule.n_orbitals,
                                  molecule.n_orbitals, molecule.n_orbitals)
        fci_two_rdm_ab = numpy.array(fci_wavefunction.get_tpdm(
            'AB', False)).reshape(molecule.n_orbitals, molecule.n_orbitals,
                                  molecule.n_orbitals, molecule.n_orbitals)
        fci_two_rdm_bb = numpy.array(fci_wavefunction.get_tpdm(
            'BB', False)).reshape(molecule.n_orbitals, molecule.n_orbitals,
                                  molecule.n_orbitals, molecule.n_orbitals)

        # Get overall RDMs.
        fci_one_rdm, fci_two_rdm = unpack_spatial_rdm(
            fci_one_rdm_a, fci_one_rdm_b,
            fci_two_rdm_aa, fci_two_rdm_ab, fci_two_rdm_bb)

        # Store 1-RDM in molecule file, 2-RDM separately in other file.
        molecule.fci_one_rdm = fci_one_rdm
        molecule.fci_two_rdm = fci_two_rdm
        molecule.save()


# Perform coupled cluster singles and doubles (CCSD) calculation.
if True:
    set qc_module ccenergy
    try:
        ccsd_energy = energy('ccsd')
        if False:
            print('CCSD energy for {} ({} electrons) is {}.'.format(
                molecule.name, molecule.n_electrons, ccsd_energy))
    except:
        if False:
            print('WARNING: CCSD calculation failed.')
        else:
            raise
    else:
        molecule.ccsd_energy = ccsd_energy

        # Merge CC amplitudes into molecule by parsing
        psi_filename = outfile_name()
        single_cc_amplitudes, double_cc_amplitudes = (
            parse_psi4_ccsd_amplitudes(
                2 * molecule.n_orbitals,
                molecule.get_n_alpha_electrons(),
                molecule.get_n_beta_electrons(),
                psi_filename))

        molecule.ccsd_single_amps = single_cc_amplitudes
        molecule.ccsd_double_amps = double_cc_amplitudes
        molecule.save()
--------------------------------------------------------------------------

  Memory set to   7.451 GiB by Python driver.

*** tstart() called on trurls-machine
*** at Thu Mar  5 14:27:53 2020

   => Loading Basis Set <=

    Name: STO-3G
    Role: ORBITAL
    Keyword: BASIS
    atoms 1, 3 entry C          line    61 file /Users/teague/anaconda3/envs/gen_env/share/psi4/basis/sto-3g.gbs 
    atoms 2    entry N          line    71 file /Users/teague/anaconda3/envs/gen_env/share/psi4/basis/sto-3g.gbs 
    atoms 4-10 entry H          line    19 file /Users/teague/anaconda3/envs/gen_env/share/psi4/basis/sto-3g.gbs 


         ---------------------------------------------------------
                                   SCF
               by Justin Turney, Rob Parrish, Andy Simmonett
                          and Daniel G. A. Smith
                              RHF Reference
                        1 Threads,   7629 MiB Core
         ---------------------------------------------------------

  ==> Geometry <==

    Molecular point group: c1
    Full point group: C1

    Geometry (in Angstrom), charge = 0, multiplicity = 1:

       Center              X                  Y                   Z               Mass       
    ------------   -----------------  -----------------  -----------------  -----------------
         C           -1.205430306892    -0.246227387130     0.151394845506    12.000000000000
         N           -0.016330306892     0.457572612870    -0.311205154494    14.003074004430
         C            1.218969693108    -0.146327387130     0.171094845506    12.000000000000
         H           -1.282530306892    -0.148527387130     1.241294845506     1.007825032230
         H           -2.098430306892     0.211872612870    -0.287105154494     1.007825032230
         H           -1.218430306892    -1.328027387130    -0.085205154494     1.007825032230
         H           -0.008230306892     0.463972612870    -1.329105154494     1.007825032230
         H            2.078369693108     0.383872612870    -0.253105154494     1.007825032230
         H            1.270069693108    -0.043527387130     1.262094845506     1.007825032230
         H            1.324869693108    -1.223227387130    -0.064705154494     1.007825032230

  Running in c1 symmetry.

  Rotational constants: A =      1.15159  B =      0.30981  C =      0.27364 [cm^-1]
  Rotational constants: A =  34523.83849  B =   9287.83518  C =   8203.60747 [MHz]
  Nuclear repulsion =   83.963186479218848

  Charge       = 0
  Multiplicity = 1
  Electrons    = 26
  Nalpha       = 13
  Nbeta        = 13

  ==> Algorithm <==

  SCF Algorithm Type is PK.
  DIIS enabled.
  MOM disabled.
  Fractional occupation disabled.
  Guess Type is SAD.
  Energy threshold   = 1.00e-06
  Density threshold  = 1.00e-06
  Integral threshold = 0.00e+00

  ==> Primary Basis <==

  Basis Set: STO-3G
    Blend: STO-3G
    Number of shells: 16
    Number of basis function: 22
    Number of Cartesian functions: 22
    Spherical Harmonics?: true
    Max angular momentum: 1

  ==> Pre-Iterations <==

   -------------------------------------------------------
    Irrep   Nso     Nmo     Nalpha   Nbeta   Ndocc  Nsocc
   -------------------------------------------------------
     A         22      22       0       0       0       0
   -------------------------------------------------------
    Total      22      22      13      13      13       0
   -------------------------------------------------------

  ==> Integral Setup <==

  Using in-core PK algorithm.
   Calculation information:
      Number of atoms:                  10
      Number of AO shells:              16
      Number of primitives:             48
      Number of atomic orbitals:        22
      Number of basis functions:        22

      Integral cutoff                 1.00e-12
      Number of threads:                 1

  Performing in-core PK
  Using 64262 doubles for integral storage.
  We computed 9177 shell quartets total.
  Whereas there are 9316 unique shell quartets.

  ==> DiskJK: Disk-Based J/K Matrices <==

    J tasked:                  Yes
    K tasked:                  Yes
    wK tasked:                  No
    Memory [MiB]:             5722
    Schwarz Cutoff:          1E-12

    OpenMP threads:              1

  Minimum eigenvalue in the overlap matrix is 2.2161492048E-01.
  Using Symmetric Orthogonalization.

  SCF Guess: Superposition of Atomic Densities via on-the-fly atomic UHF.

  ==> Iterations <==

                        Total Energy        Delta E     RMS |[F,P]|

   @RHF iter SAD:  -129.84371196304136   -1.29844e+02   0.00000e+00 
   @RHF iter   1:  -132.58727802038194   -2.74357e+00   8.26470e-03 DIIS
   @RHF iter   2:  -132.60883349922125   -2.15555e-02   2.08433e-03 DIIS
   @RHF iter   3:  -132.61020133022225   -1.36783e-03   4.62395e-04 DIIS
   @RHF iter   4:  -132.61030067561865   -9.93454e-05   3.14327e-05 DIIS
   @RHF iter   5:  -132.61030123495613   -5.59337e-07   5.86193e-06 DIIS
   @RHF iter   6:  -132.61030125288644   -1.79303e-08   1.21698e-06 DIIS
   @RHF iter   7:  -132.61030125384093   -9.54486e-10   2.34028e-07 DIIS
  Energy and wave function converged.


  ==> Post-Iterations <==

    Orbital Energies [Eh]
    ---------------------

    Doubly Occupied:                                                      

       1A    -15.317029     2A    -11.067155     3A    -11.066996  
       4A     -1.147102     5A     -0.905318     6A     -0.813557  
       7A     -0.615935     8A     -0.576184     9A     -0.548041  
      10A     -0.508223    11A     -0.466605    12A     -0.463702  
      13A     -0.301336  

    Virtual:                                                              

      14A      0.614009    15A      0.621637    16A      0.657697  
      17A      0.697421    18A      0.700552    19A      0.723823  
      20A      0.745350    21A      0.788511    22A      0.797446  

    Final Occupation by Irrep:
              A 
    DOCC [    13 ]

  @RHF Final Energy:  -132.61030125384093

   => Energetics <=

    Nuclear Repulsion Energy =             83.9631864792188480
    One-Electron Energy =                -345.5526063107471941
    Two-Electron Energy =                 128.9791185776874158
    Total Energy =                       -132.6103012538409303

Computation Completed


Properties will be evaluated at   0.000000,   0.000000,   0.000000 [a0]

Properties computed using the SCF density matrix

  Nuclear Dipole Moment: [e a0]
     X:     0.0616      Y:    -1.5796      Z:     0.4548

  Electronic Dipole Moment: [e a0]
     X:    -0.0419      Y:     1.1397      Z:    -0.6589

  Dipole Moment: [e a0]
     X:     0.0198      Y:    -0.4399      Z:    -0.2042     Total:     0.4854

  Dipole Moment: [D]
     X:     0.0502      Y:    -1.1182      Z:    -0.5189     Total:     1.2338


*** tstop() called on trurls-machine at Thu Mar  5 14:27:53 2020
Module time:
	user time   =       0.38 seconds =       0.01 minutes
	system time =       0.02 seconds =       0.00 minutes
	total time  =          0 seconds =       0.00 minutes
Total time:
	user time   =       0.38 seconds =       0.01 minutes
	system time =       0.02 seconds =       0.00 minutes
	total time  =          0 seconds =       0.00 minutes

*** tstart() called on trurls-machine
*** at Thu Mar  5 14:27:53 2020

   => Loading Basis Set <=

    Name: STO-3G
    Role: ORBITAL
    Keyword: BASIS
    atoms 1, 3 entry C          line    61 file /Users/teague/anaconda3/envs/gen_env/share/psi4/basis/sto-3g.gbs 
    atoms 2    entry N          line    71 file /Users/teague/anaconda3/envs/gen_env/share/psi4/basis/sto-3g.gbs 
    atoms 4-10 entry H          line    19 file /Users/teague/anaconda3/envs/gen_env/share/psi4/basis/sto-3g.gbs 


         ---------------------------------------------------------
                                   SCF
               by Justin Turney, Rob Parrish, Andy Simmonett
                          and Daniel G. A. Smith
                              RHF Reference
                        1 Threads,   7629 MiB Core
         ---------------------------------------------------------

  ==> Geometry <==

    Molecular point group: c1
    Full point group: C1

    Geometry (in Angstrom), charge = 0, multiplicity = 1:

       Center              X                  Y                   Z               Mass       
    ------------   -----------------  -----------------  -----------------  -----------------
         C           -1.205430306892    -0.246227387130     0.151394845506    12.000000000000
         N           -0.016330306892     0.457572612870    -0.311205154494    14.003074004430
         C            1.218969693108    -0.146327387130     0.171094845506    12.000000000000
         H           -1.282530306892    -0.148527387130     1.241294845506     1.007825032230
         H           -2.098430306892     0.211872612870    -0.287105154494     1.007825032230
         H           -1.218430306892    -1.328027387130    -0.085205154494     1.007825032230
         H           -0.008230306892     0.463972612870    -1.329105154494     1.007825032230
         H            2.078369693108     0.383872612870    -0.253105154494     1.007825032230
         H            1.270069693108    -0.043527387130     1.262094845506     1.007825032230
         H            1.324869693108    -1.223227387130    -0.064705154494     1.007825032230

  Running in c1 symmetry.

  Rotational constants: A =      1.15159  B =      0.30981  C =      0.27364 [cm^-1]
  Rotational constants: A =  34523.83849  B =   9287.83518  C =   8203.60747 [MHz]
  Nuclear repulsion =   83.963186479218848

  Charge       = 0
  Multiplicity = 1
  Electrons    = 26
  Nalpha       = 13
  Nbeta        = 13

  ==> Algorithm <==

  SCF Algorithm Type is PK.
  DIIS enabled.
  MOM disabled.
  Fractional occupation disabled.
  Guess Type is SAD.
  Energy threshold   = 1.00e-06
  Density threshold  = 1.00e-06
  Integral threshold = 0.00e+00

  ==> Primary Basis <==

  Basis Set: STO-3G
    Blend: STO-3G
    Number of shells: 16
    Number of basis function: 22
    Number of Cartesian functions: 22
    Spherical Harmonics?: true
    Max angular momentum: 1

  ==> Pre-Iterations <==

   -------------------------------------------------------
    Irrep   Nso     Nmo     Nalpha   Nbeta   Ndocc  Nsocc
   -------------------------------------------------------
     A         22      22       0       0       0       0
   -------------------------------------------------------
    Total      22      22      13      13      13       0
   -------------------------------------------------------

  ==> Integral Setup <==

  Using in-core PK algorithm.
   Calculation information:
      Number of atoms:                  10
      Number of AO shells:              16
      Number of primitives:             48
      Number of atomic orbitals:        22
      Number of basis functions:        22

      Integral cutoff                 1.00e-12
      Number of threads:                 1

  Performing in-core PK
  Using 64262 doubles for integral storage.
  We computed 9177 shell quartets total.
  Whereas there are 9316 unique shell quartets.

  ==> DiskJK: Disk-Based J/K Matrices <==

    J tasked:                  Yes
    K tasked:                  Yes
    wK tasked:                  No
    Memory [MiB]:             5722
    Schwarz Cutoff:          1E-12

    OpenMP threads:              1

  Minimum eigenvalue in the overlap matrix is 2.2161492048E-01.
  Using Symmetric Orthogonalization.

  SCF Guess: Superposition of Atomic Densities via on-the-fly atomic UHF.

  ==> Iterations <==

                        Total Energy        Delta E     RMS |[F,P]|

   @RHF iter SAD:  -129.84371196304136   -1.29844e+02   0.00000e+00 
   @RHF iter   1:  -132.58727802038186   -2.74357e+00   8.26470e-03 DIIS
   @RHF iter   2:  -132.60883349922111   -2.15555e-02   2.08433e-03 DIIS
   @RHF iter   3:  -132.61020133022225   -1.36783e-03   4.62395e-04 DIIS
   @RHF iter   4:  -132.61030067561856   -9.93454e-05   3.14327e-05 DIIS
   @RHF iter   5:  -132.61030123495604   -5.59337e-07   5.86193e-06 DIIS
   @RHF iter   6:  -132.61030125288619   -1.79301e-08   1.21698e-06 DIIS
   @RHF iter   7:  -132.61030125384082   -9.54628e-10   2.34028e-07 DIIS
  Energy and wave function converged.


  ==> Post-Iterations <==

    Orbital Energies [Eh]
    ---------------------

    Doubly Occupied:                                                      

       1A    -15.317029     2A    -11.067155     3A    -11.066996  
       4A     -1.147102     5A     -0.905318     6A     -0.813557  
       7A     -0.615935     8A     -0.576184     9A     -0.548041  
      10A     -0.508223    11A     -0.466605    12A     -0.463702  
      13A     -0.301336  

    Virtual:                                                              

      14A      0.614009    15A      0.621637    16A      0.657697  
      17A      0.697421    18A      0.700552    19A      0.723823  
      20A      0.745350    21A      0.788511    22A      0.797446  

    Final Occupation by Irrep:
              A 
    DOCC [    13 ]

  @RHF Final Energy:  -132.61030125384082

   => Energetics <=

    Nuclear Repulsion Energy =             83.9631864792188480
    One-Electron Energy =                -345.5526063107469099
    Two-Electron Energy =                 128.9791185776872453
    Total Energy =                       -132.6103012538408166

Computation Completed


Properties will be evaluated at   0.000000,   0.000000,   0.000000 [a0]

Properties computed using the SCF density matrix

  Nuclear Dipole Moment: [e a0]
     X:     0.0616      Y:    -1.5796      Z:     0.4548

  Electronic Dipole Moment: [e a0]
     X:    -0.0419      Y:     1.1397      Z:    -0.6589

  Dipole Moment: [e a0]
     X:     0.0198      Y:    -0.4399      Z:    -0.2042     Total:     0.4854

  Dipole Moment: [D]
     X:     0.0502      Y:    -1.1182      Z:    -0.5189     Total:     1.2338


*** tstop() called on trurls-machine at Thu Mar  5 14:27:54 2020
Module time:
	user time   =       0.36 seconds =       0.01 minutes
	system time =       0.01 seconds =       0.00 minutes
	total time  =          1 seconds =       0.02 minutes
Total time:
	user time   =       1.02 seconds =       0.02 minutes
	system time =       0.04 seconds =       0.00 minutes
	total time  =          1 seconds =       0.02 minutes

*** tstart() called on trurls-machine
*** at Thu Mar  5 14:27:54 2020


  //>>>>>>>>>>>>>>>>>>>>>>>>>>>>>>>>>>>//
  //               DFMP2               //
  //<<<<<<<<<<<<<<<<<<<<<<<<<<<<<<<<<<<//

   => Loading Basis Set <=

    Name: (STO-3G AUX)
    Role: RIFIT
    Keyword: DF_BASIS_MP2
    atoms 1, 3 entry C          line   270 file /Users/teague/anaconda3/envs/gen_env/share/psi4/basis/def2-qzvpp-ri.gbs 
    atoms 2    entry N          line   338 file /Users/teague/anaconda3/envs/gen_env/share/psi4/basis/def2-qzvpp-ri.gbs 
    atoms 4-10 entry H          line    24 file /Users/teague/anaconda3/envs/gen_env/share/psi4/basis/def2-qzvpp-ri.gbs 

	 --------------------------------------------------------
	                          DF-MP2                         
	      2nd-Order Density-Fitted Moller-Plesset Theory     
	              RMP2 Wavefunction,   1 Threads             
	                                                         
	        Rob Parrish, Justin Turney, Andy Simmonett,      
	           Ed Hohenstein, and C. David Sherrill          
	 --------------------------------------------------------

   => Auxiliary Basis Set <=

  Basis Set: (STO-3G AUX)
    Blend: DEF2-QZVPP-RI
    Number of shells: 211
    Number of basis function: 815
    Number of Cartesian functions: 1070
    Spherical Harmonics?: true
    Max angular momentum: 5

	 --------------------------------------------------------
	                 NBF =    22, NAUX =   815
	 --------------------------------------------------------
	   CLASS    FOCC     OCC    AOCC    AVIR     VIR    FVIR
	   PAIRS       0      13      13       9       9       0
	 --------------------------------------------------------

	-----------------------------------------------------------
	 ==================> DF-MP2 Energies <==================== 
	-----------------------------------------------------------
	 Reference Energy          =    -132.6103012538408166 [Eh]
	 Singles Energy            =      -0.0000000000000000 [Eh]
	 Same-Spin Energy          =      -0.0151059212356186 [Eh]
	 Opposite-Spin Energy      =      -0.1364605171016840 [Eh]
	 Correlation Energy        =      -0.1515664383373026 [Eh]
	 Total Energy              =    -132.7618676921781287 [Eh]
	-----------------------------------------------------------
	 ================> DF-SCS-MP2 Energies <================== 
	-----------------------------------------------------------
	 SCS Same-Spin Scale       =       0.3333333333333333 [-]
	 SCS Opposite-Spin Scale   =       1.2000000000000000 [-]
	 SCS Same-Spin Energy      =      -0.0050353070785395 [Eh]
	 SCS Opposite-Spin Energy  =      -0.1637526205220208 [Eh]
	 SCS Correlation Energy    =      -0.1687879276005604 [Eh]
	 SCS Total Energy          =    -132.7790891814413783 [Eh]
	-----------------------------------------------------------


*** tstop() called on trurls-machine at Thu Mar  5 14:27:54 2020
Module time:
	user time   =       0.44 seconds =       0.01 minutes
	system time =       0.01 seconds =       0.00 minutes
	total time  =          0 seconds =       0.00 minutes
Total time:
	user time   =       1.46 seconds =       0.02 minutes
	system time =       0.05 seconds =       0.00 minutes
	total time  =          1 seconds =       0.02 minutes

*** tstart() called on trurls-machine
*** at Thu Mar  5 14:27:54 2020

   => Loading Basis Set <=

    Name: STO-3G
    Role: ORBITAL
    Keyword: BASIS
    atoms 1, 3 entry C          line    61 file /Users/teague/anaconda3/envs/gen_env/share/psi4/basis/sto-3g.gbs 
    atoms 2    entry N          line    71 file /Users/teague/anaconda3/envs/gen_env/share/psi4/basis/sto-3g.gbs 
    atoms 4-10 entry H          line    19 file /Users/teague/anaconda3/envs/gen_env/share/psi4/basis/sto-3g.gbs 


         ---------------------------------------------------------
                                   SCF
               by Justin Turney, Rob Parrish, Andy Simmonett
                          and Daniel G. A. Smith
                              RHF Reference
                        1 Threads,   7629 MiB Core
         ---------------------------------------------------------

  ==> Geometry <==

    Molecular point group: c1
    Full point group: C1

    Geometry (in Angstrom), charge = 0, multiplicity = 1:

       Center              X                  Y                   Z               Mass       
    ------------   -----------------  -----------------  -----------------  -----------------
         C           -1.205430306892    -0.246227387130     0.151394845506    12.000000000000
         N           -0.016330306892     0.457572612870    -0.311205154494    14.003074004430
         C            1.218969693108    -0.146327387130     0.171094845506    12.000000000000
         H           -1.282530306892    -0.148527387130     1.241294845506     1.007825032230
         H           -2.098430306892     0.211872612870    -0.287105154494     1.007825032230
         H           -1.218430306892    -1.328027387130    -0.085205154494     1.007825032230
         H           -0.008230306892     0.463972612870    -1.329105154494     1.007825032230
         H            2.078369693108     0.383872612870    -0.253105154494     1.007825032230
         H            1.270069693108    -0.043527387130     1.262094845506     1.007825032230
         H            1.324869693108    -1.223227387130    -0.064705154494     1.007825032230

  Running in c1 symmetry.

  Rotational constants: A =      1.15159  B =      0.30981  C =      0.27364 [cm^-1]
  Rotational constants: A =  34523.83849  B =   9287.83518  C =   8203.60747 [MHz]
  Nuclear repulsion =   83.963186479218848

  Charge       = 0
  Multiplicity = 1
  Electrons    = 26
  Nalpha       = 13
  Nbeta        = 13

  ==> Algorithm <==

  SCF Algorithm Type is PK.
  DIIS enabled.
  MOM disabled.
  Fractional occupation disabled.
  Guess Type is SAD.
  Energy threshold   = 1.00e-06
  Density threshold  = 1.00e-06
  Integral threshold = 0.00e+00

  ==> Primary Basis <==

  Basis Set: STO-3G
    Blend: STO-3G
    Number of shells: 16
    Number of basis function: 22
    Number of Cartesian functions: 22
    Spherical Harmonics?: true
    Max angular momentum: 1

  ==> Pre-Iterations <==

   -------------------------------------------------------
    Irrep   Nso     Nmo     Nalpha   Nbeta   Ndocc  Nsocc
   -------------------------------------------------------
     A         22      22       0       0       0       0
   -------------------------------------------------------
    Total      22      22      13      13      13       0
   -------------------------------------------------------

  ==> Integral Setup <==

  Using in-core PK algorithm.
   Calculation information:
      Number of atoms:                  10
      Number of AO shells:              16
      Number of primitives:             48
      Number of atomic orbitals:        22
      Number of basis functions:        22

      Integral cutoff                 1.00e-12
      Number of threads:                 1

  Performing in-core PK
  Using 64262 doubles for integral storage.
  We computed 9177 shell quartets total.
  Whereas there are 9316 unique shell quartets.

  ==> DiskJK: Disk-Based J/K Matrices <==

    J tasked:                  Yes
    K tasked:                  Yes
    wK tasked:                  No
    Memory [MiB]:             5722
    Schwarz Cutoff:          1E-12

    OpenMP threads:              1

  Minimum eigenvalue in the overlap matrix is 2.2161492048E-01.
  Using Symmetric Orthogonalization.

  SCF Guess: Superposition of Atomic Densities via on-the-fly atomic UHF.

  ==> Iterations <==

                        Total Energy        Delta E     RMS |[F,P]|

   @RHF iter SAD:  -129.84371196304130   -1.29844e+02   0.00000e+00 
   @RHF iter   1:  -132.58727802038189   -2.74357e+00   8.26470e-03 DIIS
   @RHF iter   2:  -132.60883349922111   -2.15555e-02   2.08433e-03 DIIS
   @RHF iter   3:  -132.61020133022220   -1.36783e-03   4.62395e-04 DIIS
   @RHF iter   4:  -132.61030067561850   -9.93454e-05   3.14327e-05 DIIS
   @RHF iter   5:  -132.61030123495598   -5.59337e-07   5.86193e-06 DIIS
   @RHF iter   6:  -132.61030125288625   -1.79303e-08   1.21698e-06 DIIS
   @RHF iter   7:  -132.61030125384082   -9.54572e-10   2.34028e-07 DIIS
  Energy and wave function converged.


  ==> Post-Iterations <==

    Orbital Energies [Eh]
    ---------------------

    Doubly Occupied:                                                      

       1A    -15.317029     2A    -11.067155     3A    -11.066996  
       4A     -1.147102     5A     -0.905318     6A     -0.813557  
       7A     -0.615935     8A     -0.576184     9A     -0.548041  
      10A     -0.508223    11A     -0.466605    12A     -0.463702  
      13A     -0.301336  

    Virtual:                                                              

      14A      0.614009    15A      0.621637    16A      0.657697  
      17A      0.697421    18A      0.700552    19A      0.723823  
      20A      0.745350    21A      0.788511    22A      0.797446  

    Final Occupation by Irrep:
              A 
    DOCC [    13 ]

  @RHF Final Energy:  -132.61030125384082

   => Energetics <=

    Nuclear Repulsion Energy =             83.9631864792188480
    One-Electron Energy =                -345.5526063107471373
    Two-Electron Energy =                 128.9791185776874727
    Total Energy =                       -132.6103012538408166

Computation Completed


Properties will be evaluated at   0.000000,   0.000000,   0.000000 [a0]

Properties computed using the SCF density matrix

  Nuclear Dipole Moment: [e a0]
     X:     0.0616      Y:    -1.5796      Z:     0.4548

  Electronic Dipole Moment: [e a0]
     X:    -0.0419      Y:     1.1397      Z:    -0.6589

  Dipole Moment: [e a0]
     X:     0.0198      Y:    -0.4399      Z:    -0.2042     Total:     0.4854

  Dipole Moment: [D]
     X:     0.0502      Y:    -1.1182      Z:    -0.5189     Total:     1.2338


*** tstop() called on trurls-machine at Thu Mar  5 14:27:55 2020
Module time:
	user time   =       0.39 seconds =       0.01 minutes
	system time =       0.01 seconds =       0.00 minutes
	total time  =          1 seconds =       0.02 minutes
Total time:
	user time   =       1.91 seconds =       0.03 minutes
	system time =       0.07 seconds =       0.00 minutes
	total time  =          2 seconds =       0.03 minutes
 MINTS: Wrapper to libmints.
   by Justin Turney

   Calculation information:
      Number of threads:                 1
      Number of atoms:                  10
      Number of AO shells:              16
      Number of SO shells:              16
      Number of primitives:             48
      Number of atomic orbitals:        22
      Number of basis functions:        22

      Number of irreps:                  1
      Integral cutoff                 0.00e+00
      Number of functions per irrep: [  22 ]

 OEINTS: Overlap, kinetic, potential, dipole, and quadrupole integrals
         stored in file 35.

      Computing two-electron integrals...done
      Computed 31957 non-zero two-electron integrals.
        Stored in file 33.


         ---------------------------------------------------------
                          Configuration Interaction
                            (a 'D E T C I' module)

                 C. David Sherrill, Daniel G. A. Smith, and
                              Matt L. Leininger
         ---------------------------------------------------------


   ==> Parameters <==

    EX LEVEL       =        2      H0 BLOCKSIZE  =     1000
    VAL EX LEVEL   =        0      H0 GUESS SIZE =     1000
    H0COUPLINGSIZE =        0      H0 COUPLING   =       NO
    MAXITER        =       24      NUM PRINT     =       20
    NUM ROOTS      =        1      ICORE         =        1
    PRINT LVL      =        1      FCI           =       NO
    R CONV         = 1.00e-06      MIXED         =      YES
    E CONV         = 1.00e-06      MIXED4        =      YES
    R4S            =       NO      REPL OTF      =       NO
    DIAG METHOD    =      SEM      FOLLOW ROOT   =        0
    PRECONDITIONER = DAVIDSON      UPDATE        = DAVIDSON
    S              =   0.0000      Ms0           =      YES
    GUESS VECTOR   =  H0BLOCK      OPENTYPE      =     NONE
    COLLAPSE SIZE  =        1      HD AVG        = EVANGELISTI
    MAX NUM VECS   =       25      REF SYM       =     AUTO
    IOPEN        =       NO

    EX ALLOW       =  1  1 
    STATE AVERAGE  =  0(1.00) 

   ==> CI Orbital and Space information <==

    RAS1 LVL      =       12      A RAS3 MAX    =        2
    RAS1 MIN      =       24      B RAS3 MAX    =        2
    A RAS1 LVL    =       12      RAS4 LVL      =       22
    A RAS1 MIN    =       11      A RAS4 MAX    =        0
    A RAS1 MAX    =       13      B RAS4 MAX    =        0
    B RAS1 LVL    =       12      RAS4 MAX      =        0
    B RAS1 MIN    =       11      A RAS34 MAX   =        2
    B RAS1 MAX    =       13      B RAS34 MAX   =        2
    RAS3 LVL      =       13      RAS34 MAX     =        2
    RAS3 MAX      =        2
   ------------------------------------
               Space    Total     A
   ------------------------------------
                 Nso       22    22
                 Nmo       22    22
               Ndocc       13    13
               Nsocc        0     0
   ------------------------------------
              CI Spaces
   ------------------------------------
        Dropped DOCC        0     0
                RAS1       13    13
                RAS2        0     0
                RAS3        9     9
                RAS4        0     0
      Active (total)       22    22
        Dropped UOCC        0     0
   ------------------------------------

   ==> Setting up CI strings <==

    There are 2926 alpha and 2926 beta strings
    The CI space requires 19540 (1.95E+04) determinants and 6 blocks

   ==> Transforming CI integrals <==

	Presorting SO-basis two-electron integrals.
	Sorting File: SO Ints (nn|nn) nbuckets = 1
	Transforming the one-electron integrals and constructing Fock matrices
	Starting first half-transformation.
	Sorting half-transformed integrals.
	First half integral transformation complete.
	Starting second half-transformation.
	Two-electron integral transformation complete.

   ==> Starting CI iterations <==

    H0 Block Eigenvalue = -132.62297884

    Simultaneous Expansion Method (Block Davidson Method)
    Using 1 initial trial vectors

     Iter   Root       Total Energy       Delta E      C RMS

   @CI  0:     0   -132.622978836909   -2.1659E+02   6.2958E-01  
   @CI  1:     0   -132.792097557467   -1.6912E-01   1.0360E-01  
   @CI  2:     0   -132.796735961260   -4.6384E-03   2.1677E-02  
   @CI  3:     0   -132.796905003426   -1.6904E-04   4.7573E-03  
   @CI  4:     0   -132.796915745935   -1.0743E-05   1.1603E-03  
   @CI  5:     0   -132.796916215254   -4.6932E-07   2.1869E-04  
   @CI  6:     0   -132.796916231450   -1.6197E-08   4.5225E-05  
   @CI  7:     0   -132.796916232301   -8.5080E-10   1.1564E-05  
   @CI  8:     0   -132.796916232352   -5.0875E-11   2.8919E-06  
   @CI  9:     0   -132.796916232355   -2.8137E-12   6.5389E-07 c

   ==> Energetics <==

    SCF energy =         -132.610301253840817
    Total CI energy =    -132.796916232354732

   ==> CISD root 0 information <==

    CISD Root 0 energy =  -132.796916232354732

   The 20 most important determinants:

    *   1    0.957221  (    0,    0)  1AX 2AX 3AX 4AX 5AX 6AX 7AX 8AX 9AX 10AX 11AX 12AX 13AX 
    *   2   -0.031900  (   28,   28)  1AX 2AX 3AX 4AX 5AX 6AX 7AX 8AX 9AX 10AX 11AX 13AX 16AX 
    *   3   -0.029423  (   16,   16)  1AX 2AX 3AX 4AX 5AX 6AX 7AX 8AX 9AX 10AX 12AX 13AX 15AX 
    *   4   -0.027370  (   43,   43)  1AX 2AX 3AX 4AX 5AX 6AX 7AX 8AX 9AX 11AX 12AX 13AX 17AX 
    *   5   -0.023612  (   94,   94)  1AX 2AX 3AX 4AX 5AX 6AX 7AX 8AX 9AX 10AX 12AX 13AX 21AX 
    *   6   -0.022338  (   58,   58)  1AX 2AX 3AX 4AX 5AX 6AX 7AX 9AX 10AX 11AX 12AX 13AX 18AX 
    *   7   -0.021420  (   98,   98)  1AX 2AX 3AX 4AX 5AX 6AX 8AX 9AX 10AX 11AX 12AX 13AX 21AX 
    *   8    0.021281  (   20,   94)  1AX 2AX 3AX 4AX 5AX 6AX 7AB 8AX 9AX 10AX 11AA 12AX 13AX 15AA 21AB 
    *   9    0.021281  (   94,   20)  1AX 2AX 3AX 4AX 5AX 6AX 7AA 8AX 9AX 10AX 11AB 12AX 13AX 15AB 21AA 
    *  10   -0.020145  (  106,  106)  1AX 2AX 3AX 4AX 5AX 6AX 7AX 8AX 9AX 10AX 11AX 13AX 22AX 
    *  11   -0.019744  (  109,  109)  1AX 2AX 3AX 4AX 5AX 6AX 7AX 8AX 10AX 11AX 12AX 13AX 22AX 
    *  12    0.019625  (   16,   98)  1AX 2AX 3AX 4AX 5AX 6AX 7AA 8AX 9AX 10AX 11AB 12AX 13AX 15AA 21AB 
    *  13    0.019625  (   98,   16)  1AX 2AX 3AX 4AX 5AX 6AX 7AB 8AX 9AX 10AX 11AA 12AX 13AX 15AB 21AA 
    *  14   -0.019612  (   20,   20)  1AX 2AX 3AX 4AX 5AX 6AX 8AX 9AX 10AX 11AX 12AX 13AX 15AX 
    *  15   -0.018723  (    1,    1)  1AX 2AX 3AX 4AX 5AX 6AX 7AX 8AX 9AX 10AX 11AX 12AX 14AX 
    *  16   -0.018635  (   10,   10)  1AX 2AX 3AX 5AX 6AX 7AX 8AX 9AX 10AX 11AX 12AX 13AX 14AX 
    *  17    0.018289  (   28,   58)  1AX 2AX 3AX 4AX 5AX 6AX 7AX 8AA 9AX 10AX 11AX 12AB 13AX 16AA 18AB 
    *  18    0.018289  (   58,   28)  1AX 2AX 3AX 4AX 5AX 6AX 7AX 8AB 9AX 10AX 11AX 12AA 13AX 16AB 18AA 
    *  19   -0.017893  (   28,  109)  1AX 2AX 3AX 4AX 5AX 6AX 7AX 8AX 9AA 10AX 11AX 12AB 13AX 16AA 22AB 
    *  20   -0.017893  (  109,   28)  1AX 2AX 3AX 4AX 5AX 6AX 7AX 8AX 9AB 10AX 11AX 12AA 13AX 16AB 22AA 

		 "A good bug is a dead bug" 

			 - Starship Troopers

		 "I didn't write FORTRAN.  That's the problem."

			 - Edward Valeev

*** tstart() called on trurls-machine
*** at Thu Mar  5 14:27:58 2020

   => Loading Basis Set <=

    Name: STO-3G
    Role: ORBITAL
    Keyword: BASIS
    atoms 1, 3 entry C          line    61 file /Users/teague/anaconda3/envs/gen_env/share/psi4/basis/sto-3g.gbs 
    atoms 2    entry N          line    71 file /Users/teague/anaconda3/envs/gen_env/share/psi4/basis/sto-3g.gbs 
    atoms 4-10 entry H          line    19 file /Users/teague/anaconda3/envs/gen_env/share/psi4/basis/sto-3g.gbs 


         ---------------------------------------------------------
                                   SCF
               by Justin Turney, Rob Parrish, Andy Simmonett
                          and Daniel G. A. Smith
                              RHF Reference
                        1 Threads,   7629 MiB Core
         ---------------------------------------------------------

  ==> Geometry <==

    Molecular point group: c1
    Full point group: C1

    Geometry (in Angstrom), charge = 0, multiplicity = 1:

       Center              X                  Y                   Z               Mass       
    ------------   -----------------  -----------------  -----------------  -----------------
         C           -1.205430306892    -0.246227387130     0.151394845506    12.000000000000
         N           -0.016330306892     0.457572612870    -0.311205154494    14.003074004430
         C            1.218969693108    -0.146327387130     0.171094845506    12.000000000000
         H           -1.282530306892    -0.148527387130     1.241294845506     1.007825032230
         H           -2.098430306892     0.211872612870    -0.287105154494     1.007825032230
         H           -1.218430306892    -1.328027387130    -0.085205154494     1.007825032230
         H           -0.008230306892     0.463972612870    -1.329105154494     1.007825032230
         H            2.078369693108     0.383872612870    -0.253105154494     1.007825032230
         H            1.270069693108    -0.043527387130     1.262094845506     1.007825032230
         H            1.324869693108    -1.223227387130    -0.064705154494     1.007825032230

  Running in c1 symmetry.

  Rotational constants: A =      1.15159  B =      0.30981  C =      0.27364 [cm^-1]
  Rotational constants: A =  34523.83849  B =   9287.83518  C =   8203.60747 [MHz]
  Nuclear repulsion =   83.963186479218848

  Charge       = 0
  Multiplicity = 1
  Electrons    = 26
  Nalpha       = 13
  Nbeta        = 13

  ==> Algorithm <==

  SCF Algorithm Type is PK.
  DIIS enabled.
  MOM disabled.
  Fractional occupation disabled.
  Guess Type is SAD.
  Energy threshold   = 1.00e-06
  Density threshold  = 1.00e-06
  Integral threshold = 0.00e+00

  ==> Primary Basis <==

  Basis Set: STO-3G
    Blend: STO-3G
    Number of shells: 16
    Number of basis function: 22
    Number of Cartesian functions: 22
    Spherical Harmonics?: true
    Max angular momentum: 1

  ==> Pre-Iterations <==

   -------------------------------------------------------
    Irrep   Nso     Nmo     Nalpha   Nbeta   Ndocc  Nsocc
   -------------------------------------------------------
     A         22      22       0       0       0       0
   -------------------------------------------------------
    Total      22      22      13      13      13       0
   -------------------------------------------------------

  ==> Integral Setup <==

  Using in-core PK algorithm.
   Calculation information:
      Number of atoms:                  10
      Number of AO shells:              16
      Number of primitives:             48
      Number of atomic orbitals:        22
      Number of basis functions:        22

      Integral cutoff                 1.00e-12
      Number of threads:                 1

  Performing in-core PK
  Using 64262 doubles for integral storage.
  We computed 9177 shell quartets total.
  Whereas there are 9316 unique shell quartets.

  ==> DiskJK: Disk-Based J/K Matrices <==

    J tasked:                  Yes
    K tasked:                  Yes
    wK tasked:                  No
    Memory [MiB]:             5722
    Schwarz Cutoff:          1E-12

    OpenMP threads:              1

  Minimum eigenvalue in the overlap matrix is 2.2161492048E-01.
  Using Symmetric Orthogonalization.

  SCF Guess: Superposition of Atomic Densities via on-the-fly atomic UHF.

  ==> Iterations <==

                        Total Energy        Delta E     RMS |[F,P]|

   @RHF iter SAD:  -129.84371196304130   -1.29844e+02   0.00000e+00 
   @RHF iter   1:  -132.58727802038217   -2.74357e+00   8.26470e-03 DIIS
   @RHF iter   2:  -132.60883349922136   -2.15555e-02   2.08433e-03 DIIS
   @RHF iter   3:  -132.61020133022240   -1.36783e-03   4.62395e-04 DIIS
   @RHF iter   4:  -132.61030067561876   -9.93454e-05   3.14327e-05 DIIS
   @RHF iter   5:  -132.61030123495624   -5.59337e-07   5.86193e-06 DIIS
   @RHF iter   6:  -132.61030125288653   -1.79303e-08   1.21698e-06 DIIS
   @RHF iter   7:  -132.61030125384099   -9.54458e-10   2.34028e-07 DIIS
  Energy and wave function converged.


  ==> Post-Iterations <==

    Orbital Energies [Eh]
    ---------------------

    Doubly Occupied:                                                      

       1A    -15.317029     2A    -11.067155     3A    -11.066996  
       4A     -1.147102     5A     -0.905318     6A     -0.813557  
       7A     -0.615935     8A     -0.576184     9A     -0.548041  
      10A     -0.508223    11A     -0.466605    12A     -0.463702  
      13A     -0.301336  

    Virtual:                                                              

      14A      0.614009    15A      0.621637    16A      0.657697  
      17A      0.697421    18A      0.700552    19A      0.723823  
      20A      0.745350    21A      0.788511    22A      0.797446  

    Final Occupation by Irrep:
              A 
    DOCC [    13 ]

  @RHF Final Energy:  -132.61030125384099

   => Energetics <=

    Nuclear Repulsion Energy =             83.9631864792188480
    One-Electron Energy =                -345.5526063107473647
    Two-Electron Energy =                 128.9791185776875295
    Total Energy =                       -132.6103012538409871

Computation Completed


Properties will be evaluated at   0.000000,   0.000000,   0.000000 [a0]

Properties computed using the SCF density matrix

  Nuclear Dipole Moment: [e a0]
     X:     0.0616      Y:    -1.5796      Z:     0.4548

  Electronic Dipole Moment: [e a0]
     X:    -0.0419      Y:     1.1397      Z:    -0.6589

  Dipole Moment: [e a0]
     X:     0.0198      Y:    -0.4399      Z:    -0.2042     Total:     0.4854

  Dipole Moment: [D]
     X:     0.0502      Y:    -1.1182      Z:    -0.5189     Total:     1.2338


*** tstop() called on trurls-machine at Thu Mar  5 14:27:58 2020
Module time:
	user time   =       0.36 seconds =       0.01 minutes
	system time =       0.01 seconds =       0.00 minutes
	total time  =          0 seconds =       0.00 minutes
Total time:
	user time   =       5.03 seconds =       0.08 minutes
	system time =       0.20 seconds =       0.00 minutes
	total time  =          5 seconds =       0.08 minutes
 MINTS: Wrapper to libmints.
   by Justin Turney

   Calculation information:
      Number of threads:                 1
      Number of atoms:                  10
      Number of AO shells:              16
      Number of SO shells:              16
      Number of primitives:             48
      Number of atomic orbitals:        22
      Number of basis functions:        22

      Number of irreps:                  1
      Integral cutoff                 0.00e+00
      Number of functions per irrep: [  22 ]

 OEINTS: Overlap, kinetic, potential, dipole, and quadrupole integrals
         stored in file 35.

      Computing two-electron integrals...done
      Computed 31957 non-zero two-electron integrals.
        Stored in file 33.


         ---------------------------------------------------------
                          Configuration Interaction
                            (a 'D E T C I' module)

                 C. David Sherrill, Daniel G. A. Smith, and
                              Matt L. Leininger
         ---------------------------------------------------------


   ==> Parameters <==

    EX LEVEL       =       26      H0 BLOCKSIZE  =     1000
    VAL EX LEVEL   =        0      H0 GUESS SIZE =     1000
    H0COUPLINGSIZE =        0      H0 COUPLING   =       NO
    MAXITER        =       24      NUM PRINT     =       20
    NUM ROOTS      =        1      ICORE         =        1
    PRINT LVL      =        1      FCI           =      YES
    R CONV         = 1.00e-06      MIXED         =      YES
    E CONV         = 1.00e-06      MIXED4        =      YES
    R4S            =       NO      REPL OTF      =       NO
    DIAG METHOD    =      SEM      FOLLOW ROOT   =        0
    PRECONDITIONER = DAVIDSON      UPDATE        = DAVIDSON
    S              =   0.0000      Ms0           =      YES
    GUESS VECTOR   =  H0BLOCK      OPENTYPE      =     NONE
    COLLAPSE SIZE  =        1      HD AVG        = EVANGELISTI
    MAX NUM VECS   =       25      REF SYM       =     AUTO
    IOPEN        =       NO

    EX ALLOW       =  1  1  1  1  1  1  1  1  1  1  1  1  1  1  1  1  1  1  1  1  1  1  1  1  1  1 
    STATE AVERAGE  =  0(1.00) 

   ==> CI Orbital and Space information <==

   ------------------------------------
               Space    Total     A
   ------------------------------------
                 Nso       22    22
                 Nmo       22    22
               Ndocc       13    13
               Nsocc        0     0
   ------------------------------------
              CI Spaces
   ------------------------------------
        Dropped DOCC        0     0
              Active       22    22
        Dropped UOCC        0     0
   ------------------------------------

   ==> Setting up CI strings <==

    There are 497420 alpha and 497420 beta strings
    The CI space requires 247426656400 (2.47E+11) determinants and 1 blocks

   ==> Transforming CI integrals <==

	Presorting SO-basis two-electron integrals.
	Sorting File: SO Ints (nn|nn) nbuckets = 1
	Transforming the one-electron integrals and constructing Fock matrices
	Starting first half-transformation.
	Sorting half-transformed integrals.
	First half integral transformation complete.
	Starting second half-transformation.
	Two-electron integral transformation complete.

   ==> Starting CI iterations <==

