
    -----------------------------------------------------------------------
          Psi4: An Open-Source Ab Initio Electronic Structure Package
                               Psi4 1.3.2 release

                         Git: Rev {HEAD} ecbda83 


    R. M. Parrish, L. A. Burns, D. G. A. Smith, A. C. Simmonett,
    A. E. DePrince III, E. G. Hohenstein, U. Bozkaya, A. Yu. Sokolov,
    R. Di Remigio, R. M. Richard, J. F. Gonthier, A. M. James,
    H. R. McAlexander, A. Kumar, M. Saitow, X. Wang, B. P. Pritchard,
    P. Verma, H. F. Schaefer III, K. Patkowski, R. A. King, E. F. Valeev,
    F. A. Evangelista, J. M. Turney, T. D. Crawford, and C. D. Sherrill,
    J. Chem. Theory Comput. 13(7) pp 3185--3197 (2017).
    (doi: 10.1021/acs.jctc.7b00174)


                         Additional Contributions by
    P. Kraus, H. Kruse, M. H. Lechner, M. C. Schieber, R. A. Shaw,
    A. Alenaizan, R. Galvelis, Z. L. Glick, S. Lehtola, and J. P. Misiewicz

    -----------------------------------------------------------------------


    Psi4 started on: Thursday, 05 March 2020 04:10PM

    Process ID: 6796
    Host:       trurls-machine
    PSIDATADIR: /Users/teague/anaconda3/envs/gen_env/share/psi4
    Memory:     500.0 MiB
    Threads:    1
    
  ==> Input File <==

--------------------------------------------------------------------------
"""This is a template for psi4 input format."""
import numpy
import sys

from openfermion.config import *
from openfermion.hamiltonians import MolecularData
from openfermion.ops import general_basis_change

from numpy import array

sys.path.append('/Users/teague/.local/lib/python3.7/site-packages/openfermionpsi4')
from _psi4_conversion_functions import *


# Set memory that job can use in megabytes.
memory 8000 mb

# Initialize molecular data.
_description = 'NIST'
if _description == 'None':
    _description = None
molecule = MolecularData([('C', (0.7716, 0.9695, 1.0031)), ('C', (2.0607, 1.7502, 0.9469)), ('O', (3.0624, 1.0125, 0.4003)), ('O', (2.225, 2.8867, 1.3286)), ('H', (-0.012, 1.5911, 1.4366)), ('H', (0.4825, 0.6497, -0.0034)), ('H', (0.9079, 0.0655, 1.6059)), ('H', (3.8502, 1.5881, 0.4039))],
                         'sto-3g',
                         1,
                         0,
                         _description,
                          filename='molecule_data/EthanoicAcid_sto-3g_singlet_NIST')

# Set molecular geometry and symmetry.
molecule mol {
C 0.7716 0.9695 1.0031
C 2.0607 1.7502 0.9469
O 3.0624 1.0125 0.4003
O 2.225 2.8867 1.3286
H -0.012 1.5911 1.4366
H 0.4825 0.6497 -0.0034
H 0.9079 0.0655 1.6059
H 3.8502 1.5881 0.4039
symmetry c1
}
mol.set_multiplicity(1)
mol.set_molecular_charge(0)

# Set reference and guess.
if molecule.multiplicity == 1:
    set reference rhf
    set guess sad
else:
    set reference rohf
    set guess gwh

# Set global parameters of calculation.
set globals {
    basis sto-3g
    freeze_core false
    fail_on_maxiter True
    df_scf_guess false
    opdm true
    tpdm true
    soscf false
    scf_type pk
    maxiter 1e6
    num_amps_print 1e6
    r_convergence 1e-6
    d_convergence 1e-6
    e_convergence 1e-6
    ints_tolerance EQUALITY_TOLERANCE
    damping_percentage 0
}

# Run self-consistent field (SCF) calculation.
if True:
    try:
        hf_energy, hf_wavefunction = energy('scf', return_wfn=True)
        if False:
            print('Hartree-Fock energy for {} ({} electrons) is {}.'.format(
                molecule.name, molecule.n_electrons, hf_energy))
    except:
        if False:
            print('WARNING: SCF calculation failed.')
        else:
            raise
    finally:
        # Get orbitals and Fock matrix.
        molecule.hf_energy = hf_energy
        molecule.nuclear_repulsion = mol.nuclear_repulsion_energy()
        molecule.canonical_orbitals = numpy.asarray(hf_wavefunction.Ca())
        molecule.overlap_integrals = numpy.asarray(hf_wavefunction.S())
        molecule.n_orbitals = molecule.canonical_orbitals.shape[0]
        molecule.n_qubits = 2 * molecule.n_orbitals
        molecule.orbital_energies = numpy.asarray(hf_wavefunction.epsilon_a())
        molecule.fock_matrix = numpy.asarray(hf_wavefunction.Fa())

        # Get integrals using MintsHelper.
        mints = MintsHelper(hf_wavefunction.basisset())
        molecule.one_body_integrals = general_basis_change(
            numpy.asarray(mints.ao_kinetic()), molecule.canonical_orbitals, (1, 0))
        molecule.one_body_integrals += general_basis_change(
            numpy.asarray(mints.ao_potential()), molecule.canonical_orbitals, (1, 0))
        two_body_integrals = numpy.asarray(mints.ao_eri())
        two_body_integrals.reshape((molecule.n_orbitals, molecule.n_orbitals,
                                    molecule.n_orbitals, molecule.n_orbitals))
        two_body_integrals = numpy.einsum('psqr', two_body_integrals)
        two_body_integrals = general_basis_change(
            two_body_integrals, molecule.canonical_orbitals, (1, 1, 0, 0))
        molecule.two_body_integrals = two_body_integrals
        molecule.save()


# Perform MP2 energy calculation if there are at least two electrons.
if True:
    try:
        assert molecule.n_electrons > 1
        mp2_energy = energy('mp2')
        if False:
            print('MP2 energy for {} ({} electrons) is {}.'.format(
                molecule.name, molecule.n_electrons, mp2_energy))
    except:
        if False:
            print('WARNING: MP2 calculation failed.')
        else:
            raise
    else:
        molecule.mp2_energy = mp2_energy
        molecule.save()


# Perform configuration interaction singles and doubles (CISD) calculation.
if True:
    set qc_module detci
    try:
        cisd_energy, cisd_wavefunction = energy('cisd', return_wfn=True)
        if False:
            print('CISD energy for {} ({} electrons) is {}.'.format(
                molecule.name, molecule.n_electrons, cisd_energy))
    except:
        if False:
            print('WARNING: CISD calculation failed.')
        else:
            raise
    else:
        # For the functions below, "a" and "b" refer to "up and "down" spins.
        molecule.cisd_energy = cisd_energy

        # Get 1-RDM from CISD calculation.
        cisd_one_rdm_a = numpy.array(cisd_wavefunction.get_opdm(
            0, 0, 'A', True)).reshape(molecule.n_orbitals, molecule.n_orbitals)
        cisd_one_rdm_b = numpy.array(cisd_wavefunction.get_opdm(
            0, 0, 'B', True)).reshape(molecule.n_orbitals, molecule.n_orbitals)

        # Get 2-RDM from CISD calculation.
        cisd_two_rdm_aa = numpy.array(cisd_wavefunction.get_tpdm(
            'AA', False)).reshape(molecule.n_orbitals, molecule.n_orbitals,
                                  molecule.n_orbitals, molecule.n_orbitals)
        cisd_two_rdm_ab = numpy.array(cisd_wavefunction.get_tpdm(
            'AB', False)).reshape(molecule.n_orbitals, molecule.n_orbitals,
                                  molecule.n_orbitals, molecule.n_orbitals)
        cisd_two_rdm_bb = numpy.array(cisd_wavefunction.get_tpdm(
            'BB', False)).reshape(molecule.n_orbitals, molecule.n_orbitals,
                                  molecule.n_orbitals, molecule.n_orbitals)

        # Get overall RDMs.
        cisd_one_rdm, cisd_two_rdm = unpack_spatial_rdm(
            cisd_one_rdm_a, cisd_one_rdm_b, cisd_two_rdm_aa,
            cisd_two_rdm_ab, cisd_two_rdm_bb)

        # Store 1-RDM in molecule file, 2-RDM separately in other file.
        molecule.cisd_one_rdm = cisd_one_rdm
        molecule.cisd_two_rdm = cisd_two_rdm
        molecule.save()


# Perform exact diagonalization.
if True:
    set qc_module detci
    try:
        fci_energy, fci_wavefunction = energy('fci', return_wfn=True)
        if False:
            print('FCI energy for {} ({} electrons) is {}.'.format(
                molecule.name, molecule.n_electrons, fci_energy))
    except:
        if False:
            print('WARNING: FCI calculation failed.')
        else:
            raise
    finally:
        # For the functions below, "a" and "b" refer to "up and "down" spins.
        molecule.fci_energy = fci_energy

        # Get 1-RDM from FCI calculation.
        fci_one_rdm_a = numpy.array(fci_wavefunction.get_opdm(
            0, 0, 'A', True)).reshape(molecule.n_orbitals, molecule.n_orbitals)
        fci_one_rdm_b = numpy.array(fci_wavefunction.get_opdm(
            0, 0, 'B', True)).reshape(molecule.n_orbitals, molecule.n_orbitals)

        # Get 2-RDM from FCI calculation.
        fci_two_rdm_aa = numpy.array(fci_wavefunction.get_tpdm(
            'AA', False)).reshape(molecule.n_orbitals, molecule.n_orbitals,
                                  molecule.n_orbitals, molecule.n_orbitals)
        fci_two_rdm_ab = numpy.array(fci_wavefunction.get_tpdm(
            'AB', False)).reshape(molecule.n_orbitals, molecule.n_orbitals,
                                  molecule.n_orbitals, molecule.n_orbitals)
        fci_two_rdm_bb = numpy.array(fci_wavefunction.get_tpdm(
            'BB', False)).reshape(molecule.n_orbitals, molecule.n_orbitals,
                                  molecule.n_orbitals, molecule.n_orbitals)

        # Get overall RDMs.
        fci_one_rdm, fci_two_rdm = unpack_spatial_rdm(
            fci_one_rdm_a, fci_one_rdm_b,
            fci_two_rdm_aa, fci_two_rdm_ab, fci_two_rdm_bb)

        # Store 1-RDM in molecule file, 2-RDM separately in other file.
        molecule.fci_one_rdm = fci_one_rdm
        molecule.fci_two_rdm = fci_two_rdm
        molecule.save()


# Perform coupled cluster singles and doubles (CCSD) calculation.
if True:
    set qc_module ccenergy
    try:
        ccsd_energy = energy('ccsd')
        if False:
            print('CCSD energy for {} ({} electrons) is {}.'.format(
                molecule.name, molecule.n_electrons, ccsd_energy))
    except:
        if False:
            print('WARNING: CCSD calculation failed.')
        else:
            raise
    else:
        molecule.ccsd_energy = ccsd_energy

        # Merge CC amplitudes into molecule by parsing
        psi_filename = outfile_name()
        single_cc_amplitudes, double_cc_amplitudes = (
            parse_psi4_ccsd_amplitudes(
                2 * molecule.n_orbitals,
                molecule.get_n_alpha_electrons(),
                molecule.get_n_beta_electrons(),
                psi_filename))

        molecule.ccsd_single_amps = single_cc_amplitudes
        molecule.ccsd_double_amps = double_cc_amplitudes
        molecule.save()
--------------------------------------------------------------------------

  Memory set to   7.451 GiB by Python driver.

*** tstart() called on trurls-machine
*** at Thu Mar  5 16:10:26 2020

   => Loading Basis Set <=

    Name: STO-3G
    Role: ORBITAL
    Keyword: BASIS
    atoms 1-2 entry C          line    61 file /Users/teague/anaconda3/envs/gen_env/share/psi4/basis/sto-3g.gbs 
    atoms 3-4 entry O          line    81 file /Users/teague/anaconda3/envs/gen_env/share/psi4/basis/sto-3g.gbs 
    atoms 5-8 entry H          line    19 file /Users/teague/anaconda3/envs/gen_env/share/psi4/basis/sto-3g.gbs 


         ---------------------------------------------------------
                                   SCF
               by Justin Turney, Rob Parrish, Andy Simmonett
                          and Daniel G. A. Smith
                              RHF Reference
                        1 Threads,   7629 MiB Core
         ---------------------------------------------------------

  ==> Geometry <==

    Molecular point group: c1
    Full point group: C1

    Geometry (in Angstrom), charge = 0, multiplicity = 1:

       Center              X                  Y                   Z               Mass       
    ------------   -----------------  -----------------  -----------------  -----------------
         C           -1.291483897734    -0.678730313753     0.094694076189    12.000000000000
         C           -0.002383897734     0.101969686247     0.038494076189    12.000000000000
         O            0.999316102266    -0.635730313753    -0.508105923811    15.994914619570
         O            0.161916102266     1.238469686247     0.420194076189    15.994914619570
         H           -2.075083897734    -0.057130313753     0.528194076189     1.007825032230
         H           -1.580583897734    -0.998530313753    -0.911805923811     1.007825032230
         H           -1.155183897734    -1.582730313753     0.697494076189     1.007825032230
         H            1.787116102266    -0.060130313753    -0.504505923811     1.007825032230

  Running in c1 symmetry.

  Rotational constants: A =      0.37615  B =      0.31385  C =      0.17672 [cm^-1]
  Rotational constants: A =  11276.65224  B =   9409.01720  C =   5297.90942 [MHz]
  Nuclear repulsion =  120.730832312103203

  Charge       = 0
  Multiplicity = 1
  Electrons    = 32
  Nalpha       = 16
  Nbeta        = 16

  ==> Algorithm <==

  SCF Algorithm Type is PK.
  DIIS enabled.
  MOM disabled.
  Fractional occupation disabled.
  Guess Type is SAD.
  Energy threshold   = 1.00e-06
  Density threshold  = 1.00e-06
  Integral threshold = 0.00e+00

  ==> Primary Basis <==

  Basis Set: STO-3G
    Blend: STO-3G
    Number of shells: 16
    Number of basis function: 24
    Number of Cartesian functions: 24
    Spherical Harmonics?: true
    Max angular momentum: 1

  ==> Pre-Iterations <==

   -------------------------------------------------------
    Irrep   Nso     Nmo     Nalpha   Nbeta   Ndocc  Nsocc
   -------------------------------------------------------
     A         24      24       0       0       0       0
   -------------------------------------------------------
    Total      24      24      16      16      16       0
   -------------------------------------------------------

  ==> Integral Setup <==

  Using in-core PK algorithm.
   Calculation information:
      Number of atoms:                   8
      Number of AO shells:              16
      Number of primitives:             48
      Number of atomic orbitals:        24
      Number of basis functions:        24

      Integral cutoff                 1.00e-12
      Number of threads:                 1

  Performing in-core PK
  Using 90300 doubles for integral storage.
  We computed 8906 shell quartets total.
  Whereas there are 9316 unique shell quartets.

  ==> DiskJK: Disk-Based J/K Matrices <==

    J tasked:                  Yes
    K tasked:                  Yes
    wK tasked:                  No
    Memory [MiB]:             5722
    Schwarz Cutoff:          1E-12

    OpenMP threads:              1

  Minimum eigenvalue in the overlap matrix is 2.1738243631E-01.
  Using Symmetric Orthogonalization.

  SCF Guess: Superposition of Atomic Densities via on-the-fly atomic UHF.

  ==> Iterations <==

                        Total Energy        Delta E     RMS |[F,P]|

   @RHF iter SAD:  -222.17553895180217   -2.22176e+02   0.00000e+00 
   @RHF iter   1:  -224.63773842008985   -2.46220e+00   2.05117e-02 DIIS
   @RHF iter   2:  -224.75595118512473   -1.18213e-01   1.31848e-02 DIIS
   @RHF iter   3:  -224.80586508538377   -4.99139e-02   1.53941e-03 DIIS
   @RHF iter   4:  -224.80751962413927   -1.65454e-03   7.58226e-04 DIIS
   @RHF iter   5:  -224.80792783870729   -4.08215e-04   2.30118e-04 DIIS
   @RHF iter   6:  -224.80798317596441   -5.53373e-05   5.80782e-05 DIIS
   @RHF iter   7:  -224.80798593235181   -2.75639e-06   1.15731e-05 DIIS
   @RHF iter   8:  -224.80798602231067   -8.99589e-08   2.27856e-06 DIIS
   @RHF iter   9:  -224.80798602565039   -3.33972e-09   6.31750e-07 DIIS
  Energy and wave function converged.


  ==> Post-Iterations <==

    Orbital Energies [Eh]
    ---------------------

    Doubly Occupied:                                                      

       1A    -20.305581     2A    -20.253947     3A    -11.174828  
       4A    -11.063380     5A     -1.386279     6A     -1.278585  
       7A     -0.967865     8A     -0.734182     9A     -0.611307  
      10A     -0.589550    11A     -0.586310    12A     -0.522981  
      13A     -0.490697    14A     -0.458194    15A     -0.352713  
      16A     -0.343969  

    Virtual:                                                              

      17A      0.310329    18A      0.569128    19A      0.653071  
      20A      0.682825    21A      0.698451    22A      0.715647  
      23A      0.772129    24A      1.012838  

    Final Occupation by Irrep:
              A 
    DOCC [    16 ]

  @RHF Final Energy:  -224.80798602565039

   => Energetics <=

    Nuclear Repulsion Energy =            120.7308323121032032
    One-Electron Energy =                -548.8369022823359273
    Two-Electron Energy =                 203.2980839445823449
    Total Energy =                       -224.8079860256503935

Computation Completed


Properties will be evaluated at   0.000000,   0.000000,   0.000000 [a0]

Properties computed using the SCF density matrix

  Nuclear Dipole Moment: [e a0]
     X:    -2.8291      Y:    -2.5269      Z:    -0.1791

  Electronic Dipole Moment: [e a0]
     X:     2.8168      Y:     2.2101      Z:     0.0645

  Dipole Moment: [e a0]
     X:    -0.0123      Y:    -0.3168      Z:    -0.1146     Total:     0.3371

  Dipole Moment: [D]
     X:    -0.0313      Y:    -0.8051      Z:    -0.2913     Total:     0.8567


*** tstop() called on trurls-machine at Thu Mar  5 16:10:26 2020
Module time:
	user time   =       0.34 seconds =       0.01 minutes
	system time =       0.01 seconds =       0.00 minutes
	total time  =          0 seconds =       0.00 minutes
Total time:
	user time   =       0.34 seconds =       0.01 minutes
	system time =       0.01 seconds =       0.00 minutes
	total time  =          0 seconds =       0.00 minutes

*** tstart() called on trurls-machine
*** at Thu Mar  5 16:10:27 2020

   => Loading Basis Set <=

    Name: STO-3G
    Role: ORBITAL
    Keyword: BASIS
    atoms 1-2 entry C          line    61 file /Users/teague/anaconda3/envs/gen_env/share/psi4/basis/sto-3g.gbs 
    atoms 3-4 entry O          line    81 file /Users/teague/anaconda3/envs/gen_env/share/psi4/basis/sto-3g.gbs 
    atoms 5-8 entry H          line    19 file /Users/teague/anaconda3/envs/gen_env/share/psi4/basis/sto-3g.gbs 


         ---------------------------------------------------------
                                   SCF
               by Justin Turney, Rob Parrish, Andy Simmonett
                          and Daniel G. A. Smith
                              RHF Reference
                        1 Threads,   7629 MiB Core
         ---------------------------------------------------------

  ==> Geometry <==

    Molecular point group: c1
    Full point group: C1

    Geometry (in Angstrom), charge = 0, multiplicity = 1:

       Center              X                  Y                   Z               Mass       
    ------------   -----------------  -----------------  -----------------  -----------------
         C           -1.291483897734    -0.678730313753     0.094694076189    12.000000000000
         C           -0.002383897734     0.101969686247     0.038494076189    12.000000000000
         O            0.999316102266    -0.635730313753    -0.508105923811    15.994914619570
         O            0.161916102266     1.238469686247     0.420194076189    15.994914619570
         H           -2.075083897734    -0.057130313753     0.528194076189     1.007825032230
         H           -1.580583897734    -0.998530313753    -0.911805923811     1.007825032230
         H           -1.155183897734    -1.582730313753     0.697494076189     1.007825032230
         H            1.787116102266    -0.060130313753    -0.504505923811     1.007825032230

  Running in c1 symmetry.

  Rotational constants: A =      0.37615  B =      0.31385  C =      0.17672 [cm^-1]
  Rotational constants: A =  11276.65224  B =   9409.01720  C =   5297.90942 [MHz]
  Nuclear repulsion =  120.730832312103203

  Charge       = 0
  Multiplicity = 1
  Electrons    = 32
  Nalpha       = 16
  Nbeta        = 16

  ==> Algorithm <==

  SCF Algorithm Type is PK.
  DIIS enabled.
  MOM disabled.
  Fractional occupation disabled.
  Guess Type is SAD.
  Energy threshold   = 1.00e-06
  Density threshold  = 1.00e-06
  Integral threshold = 0.00e+00

  ==> Primary Basis <==

  Basis Set: STO-3G
    Blend: STO-3G
    Number of shells: 16
    Number of basis function: 24
    Number of Cartesian functions: 24
    Spherical Harmonics?: true
    Max angular momentum: 1

  ==> Pre-Iterations <==

   -------------------------------------------------------
    Irrep   Nso     Nmo     Nalpha   Nbeta   Ndocc  Nsocc
   -------------------------------------------------------
     A         24      24       0       0       0       0
   -------------------------------------------------------
    Total      24      24      16      16      16       0
   -------------------------------------------------------

  ==> Integral Setup <==

  Using in-core PK algorithm.
   Calculation information:
      Number of atoms:                   8
      Number of AO shells:              16
      Number of primitives:             48
      Number of atomic orbitals:        24
      Number of basis functions:        24

      Integral cutoff                 1.00e-12
      Number of threads:                 1

  Performing in-core PK
  Using 90300 doubles for integral storage.
  We computed 8906 shell quartets total.
  Whereas there are 9316 unique shell quartets.

  ==> DiskJK: Disk-Based J/K Matrices <==

    J tasked:                  Yes
    K tasked:                  Yes
    wK tasked:                  No
    Memory [MiB]:             5722
    Schwarz Cutoff:          1E-12

    OpenMP threads:              1

  Minimum eigenvalue in the overlap matrix is 2.1738243631E-01.
  Using Symmetric Orthogonalization.

  SCF Guess: Superposition of Atomic Densities via on-the-fly atomic UHF.

  ==> Iterations <==

                        Total Energy        Delta E     RMS |[F,P]|

   @RHF iter SAD:  -222.17553895180225   -2.22176e+02   0.00000e+00 
   @RHF iter   1:  -224.63773842008985   -2.46220e+00   2.05117e-02 DIIS
   @RHF iter   2:  -224.75595118512484   -1.18213e-01   1.31848e-02 DIIS
   @RHF iter   3:  -224.80586508538372   -4.99139e-02   1.53941e-03 DIIS
   @RHF iter   4:  -224.80751962413916   -1.65454e-03   7.58226e-04 DIIS
   @RHF iter   5:  -224.80792783870749   -4.08215e-04   2.30118e-04 DIIS
   @RHF iter   6:  -224.80798317596438   -5.53373e-05   5.80782e-05 DIIS
   @RHF iter   7:  -224.80798593235144   -2.75639e-06   1.15731e-05 DIIS
   @RHF iter   8:  -224.80798602231073   -8.99593e-08   2.27856e-06 DIIS
   @RHF iter   9:  -224.80798602565056   -3.33984e-09   6.31750e-07 DIIS
  Energy and wave function converged.


  ==> Post-Iterations <==

    Orbital Energies [Eh]
    ---------------------

    Doubly Occupied:                                                      

       1A    -20.305581     2A    -20.253947     3A    -11.174828  
       4A    -11.063380     5A     -1.386279     6A     -1.278585  
       7A     -0.967865     8A     -0.734182     9A     -0.611307  
      10A     -0.589550    11A     -0.586310    12A     -0.522981  
      13A     -0.490697    14A     -0.458194    15A     -0.352713  
      16A     -0.343969  

    Virtual:                                                              

      17A      0.310329    18A      0.569128    19A      0.653071  
      20A      0.682825    21A      0.698451    22A      0.715647  
      23A      0.772129    24A      1.012838  

    Final Occupation by Irrep:
              A 
    DOCC [    16 ]

  @RHF Final Energy:  -224.80798602565056

   => Energetics <=

    Nuclear Repulsion Energy =            120.7308323121032032
    One-Electron Energy =                -548.8369022823360410
    Two-Electron Energy =                 203.2980839445822880
    Total Energy =                       -224.8079860256505640

Computation Completed


Properties will be evaluated at   0.000000,   0.000000,   0.000000 [a0]

Properties computed using the SCF density matrix

  Nuclear Dipole Moment: [e a0]
     X:    -2.8291      Y:    -2.5269      Z:    -0.1791

  Electronic Dipole Moment: [e a0]
     X:     2.8168      Y:     2.2101      Z:     0.0645

  Dipole Moment: [e a0]
     X:    -0.0123      Y:    -0.3168      Z:    -0.1146     Total:     0.3371

  Dipole Moment: [D]
     X:    -0.0313      Y:    -0.8051      Z:    -0.2913     Total:     0.8567


*** tstop() called on trurls-machine at Thu Mar  5 16:10:27 2020
Module time:
	user time   =       0.34 seconds =       0.01 minutes
	system time =       0.02 seconds =       0.00 minutes
	total time  =          0 seconds =       0.00 minutes
Total time:
	user time   =       1.00 seconds =       0.02 minutes
	system time =       0.04 seconds =       0.00 minutes
	total time  =          1 seconds =       0.02 minutes

*** tstart() called on trurls-machine
*** at Thu Mar  5 16:10:27 2020


  //>>>>>>>>>>>>>>>>>>>>>>>>>>>>>>>>>>>//
  //               DFMP2               //
  //<<<<<<<<<<<<<<<<<<<<<<<<<<<<<<<<<<<//

   => Loading Basis Set <=

    Name: (STO-3G AUX)
    Role: RIFIT
    Keyword: DF_BASIS_MP2
    atoms 1-2 entry C          line   270 file /Users/teague/anaconda3/envs/gen_env/share/psi4/basis/def2-qzvpp-ri.gbs 
    atoms 3-4 entry O          line   406 file /Users/teague/anaconda3/envs/gen_env/share/psi4/basis/def2-qzvpp-ri.gbs 
    atoms 5-8 entry H          line    24 file /Users/teague/anaconda3/envs/gen_env/share/psi4/basis/def2-qzvpp-ri.gbs 

	 --------------------------------------------------------
	                          DF-MP2                         
	      2nd-Order Density-Fitted Moller-Plesset Theory     
	              RMP2 Wavefunction,   1 Threads             
	                                                         
	        Rob Parrish, Justin Turney, Andy Simmonett,      
	           Ed Hohenstein, and C. David Sherrill          
	 --------------------------------------------------------

   => Auxiliary Basis Set <=

  Basis Set: (STO-3G AUX)
    Blend: DEF2-QZVPP-RI
    Number of shells: 196
    Number of basis function: 788
    Number of Cartesian functions: 1048
    Spherical Harmonics?: true
    Max angular momentum: 5

	 --------------------------------------------------------
	                 NBF =    24, NAUX =   788
	 --------------------------------------------------------
	   CLASS    FOCC     OCC    AOCC    AVIR     VIR    FVIR
	   PAIRS       0      16      16       8       8       0
	 --------------------------------------------------------

	-----------------------------------------------------------
	 ==================> DF-MP2 Energies <==================== 
	-----------------------------------------------------------
	 Reference Energy          =    -224.8079860256505640 [Eh]
	 Singles Energy            =      -0.0000000000000000 [Eh]
	 Same-Spin Energy          =      -0.0365748599377381 [Eh]
	 Opposite-Spin Energy      =      -0.1677232133763566 [Eh]
	 Correlation Energy        =      -0.2042980733140947 [Eh]
	 Total Energy              =    -225.0122840989646704 [Eh]
	-----------------------------------------------------------
	 ================> DF-SCS-MP2 Energies <================== 
	-----------------------------------------------------------
	 SCS Same-Spin Scale       =       0.3333333333333333 [-]
	 SCS Opposite-Spin Scale   =       1.2000000000000000 [-]
	 SCS Same-Spin Energy      =      -0.0121916199792460 [Eh]
	 SCS Opposite-Spin Energy  =      -0.2012678560516279 [Eh]
	 SCS Correlation Energy    =      -0.2134594760308740 [Eh]
	 SCS Total Energy          =    -225.0214455016814270 [Eh]
	-----------------------------------------------------------


*** tstop() called on trurls-machine at Thu Mar  5 16:10:27 2020
Module time:
	user time   =       0.35 seconds =       0.01 minutes
	system time =       0.00 seconds =       0.00 minutes
	total time  =          0 seconds =       0.00 minutes
Total time:
	user time   =       1.35 seconds =       0.02 minutes
	system time =       0.04 seconds =       0.00 minutes
	total time  =          1 seconds =       0.02 minutes

*** tstart() called on trurls-machine
*** at Thu Mar  5 16:10:27 2020

   => Loading Basis Set <=

    Name: STO-3G
    Role: ORBITAL
    Keyword: BASIS
    atoms 1-2 entry C          line    61 file /Users/teague/anaconda3/envs/gen_env/share/psi4/basis/sto-3g.gbs 
    atoms 3-4 entry O          line    81 file /Users/teague/anaconda3/envs/gen_env/share/psi4/basis/sto-3g.gbs 
    atoms 5-8 entry H          line    19 file /Users/teague/anaconda3/envs/gen_env/share/psi4/basis/sto-3g.gbs 


         ---------------------------------------------------------
                                   SCF
               by Justin Turney, Rob Parrish, Andy Simmonett
                          and Daniel G. A. Smith
                              RHF Reference
                        1 Threads,   7629 MiB Core
         ---------------------------------------------------------

  ==> Geometry <==

    Molecular point group: c1
    Full point group: C1

    Geometry (in Angstrom), charge = 0, multiplicity = 1:

       Center              X                  Y                   Z               Mass       
    ------------   -----------------  -----------------  -----------------  -----------------
         C           -1.291483897734    -0.678730313753     0.094694076189    12.000000000000
         C           -0.002383897734     0.101969686247     0.038494076189    12.000000000000
         O            0.999316102266    -0.635730313753    -0.508105923811    15.994914619570
         O            0.161916102266     1.238469686247     0.420194076189    15.994914619570
         H           -2.075083897734    -0.057130313753     0.528194076189     1.007825032230
         H           -1.580583897734    -0.998530313753    -0.911805923811     1.007825032230
         H           -1.155183897734    -1.582730313753     0.697494076189     1.007825032230
         H            1.787116102266    -0.060130313753    -0.504505923811     1.007825032230

  Running in c1 symmetry.

  Rotational constants: A =      0.37615  B =      0.31385  C =      0.17672 [cm^-1]
  Rotational constants: A =  11276.65224  B =   9409.01720  C =   5297.90942 [MHz]
  Nuclear repulsion =  120.730832312103203

  Charge       = 0
  Multiplicity = 1
  Electrons    = 32
  Nalpha       = 16
  Nbeta        = 16

  ==> Algorithm <==

  SCF Algorithm Type is PK.
  DIIS enabled.
  MOM disabled.
  Fractional occupation disabled.
  Guess Type is SAD.
  Energy threshold   = 1.00e-06
  Density threshold  = 1.00e-06
  Integral threshold = 0.00e+00

  ==> Primary Basis <==

  Basis Set: STO-3G
    Blend: STO-3G
    Number of shells: 16
    Number of basis function: 24
    Number of Cartesian functions: 24
    Spherical Harmonics?: true
    Max angular momentum: 1

  ==> Pre-Iterations <==

   -------------------------------------------------------
    Irrep   Nso     Nmo     Nalpha   Nbeta   Ndocc  Nsocc
   -------------------------------------------------------
     A         24      24       0       0       0       0
   -------------------------------------------------------
    Total      24      24      16      16      16       0
   -------------------------------------------------------

  ==> Integral Setup <==

  Using in-core PK algorithm.
   Calculation information:
      Number of atoms:                   8
      Number of AO shells:              16
      Number of primitives:             48
      Number of atomic orbitals:        24
      Number of basis functions:        24

      Integral cutoff                 1.00e-12
      Number of threads:                 1

  Performing in-core PK
  Using 90300 doubles for integral storage.
  We computed 8906 shell quartets total.
  Whereas there are 9316 unique shell quartets.

  ==> DiskJK: Disk-Based J/K Matrices <==

    J tasked:                  Yes
    K tasked:                  Yes
    wK tasked:                  No
    Memory [MiB]:             5722
    Schwarz Cutoff:          1E-12

    OpenMP threads:              1

  Minimum eigenvalue in the overlap matrix is 2.1738243631E-01.
  Using Symmetric Orthogonalization.

  SCF Guess: Superposition of Atomic Densities via on-the-fly atomic UHF.

  ==> Iterations <==

                        Total Energy        Delta E     RMS |[F,P]|

   @RHF iter SAD:  -222.17553895180217   -2.22176e+02   0.00000e+00 
   @RHF iter   1:  -224.63773842008999   -2.46220e+00   2.05117e-02 DIIS
   @RHF iter   2:  -224.75595118512476   -1.18213e-01   1.31848e-02 DIIS
   @RHF iter   3:  -224.80586508538372   -4.99139e-02   1.53941e-03 DIIS
   @RHF iter   4:  -224.80751962413933   -1.65454e-03   7.58226e-04 DIIS
   @RHF iter   5:  -224.80792783870737   -4.08215e-04   2.30118e-04 DIIS
   @RHF iter   6:  -224.80798317596418   -5.53373e-05   5.80782e-05 DIIS
   @RHF iter   7:  -224.80798593235164   -2.75639e-06   1.15731e-05 DIIS
   @RHF iter   8:  -224.80798602231059   -8.99589e-08   2.27856e-06 DIIS
   @RHF iter   9:  -224.80798602565059   -3.34001e-09   6.31750e-07 DIIS
  Energy and wave function converged.


  ==> Post-Iterations <==

    Orbital Energies [Eh]
    ---------------------

    Doubly Occupied:                                                      

       1A    -20.305581     2A    -20.253947     3A    -11.174828  
       4A    -11.063380     5A     -1.386279     6A     -1.278585  
       7A     -0.967865     8A     -0.734182     9A     -0.611307  
      10A     -0.589550    11A     -0.586310    12A     -0.522981  
      13A     -0.490697    14A     -0.458194    15A     -0.352713  
      16A     -0.343969  

    Virtual:                                                              

      17A      0.310329    18A      0.569128    19A      0.653071  
      20A      0.682825    21A      0.698451    22A      0.715647  
      23A      0.772129    24A      1.012838  

    Final Occupation by Irrep:
              A 
    DOCC [    16 ]

  @RHF Final Energy:  -224.80798602565059

   => Energetics <=

    Nuclear Repulsion Energy =            120.7308323121032032
    One-Electron Energy =                -548.8369022823358137
    Two-Electron Energy =                 203.2980839445820322
    Total Energy =                       -224.8079860256505924

Computation Completed


Properties will be evaluated at   0.000000,   0.000000,   0.000000 [a0]

Properties computed using the SCF density matrix

  Nuclear Dipole Moment: [e a0]
     X:    -2.8291      Y:    -2.5269      Z:    -0.1791

  Electronic Dipole Moment: [e a0]
     X:     2.8168      Y:     2.2101      Z:     0.0645

  Dipole Moment: [e a0]
     X:    -0.0123      Y:    -0.3168      Z:    -0.1146     Total:     0.3371

  Dipole Moment: [D]
     X:    -0.0313      Y:    -0.8051      Z:    -0.2913     Total:     0.8567


*** tstop() called on trurls-machine at Thu Mar  5 16:10:28 2020
Module time:
	user time   =       0.31 seconds =       0.01 minutes
	system time =       0.01 seconds =       0.00 minutes
	total time  =          1 seconds =       0.02 minutes
Total time:
	user time   =       1.73 seconds =       0.03 minutes
	system time =       0.07 seconds =       0.00 minutes
	total time  =          2 seconds =       0.03 minutes
 MINTS: Wrapper to libmints.
   by Justin Turney

   Calculation information:
      Number of threads:                 1
      Number of atoms:                   8
      Number of AO shells:              16
      Number of SO shells:              16
      Number of primitives:             48
      Number of atomic orbitals:        24
      Number of basis functions:        24

      Number of irreps:                  1
      Integral cutoff                 0.00e+00
      Number of functions per irrep: [  24 ]

 OEINTS: Overlap, kinetic, potential, dipole, and quadrupole integrals
         stored in file 35.

      Computing two-electron integrals...done
      Computed 44934 non-zero two-electron integrals.
        Stored in file 33.


         ---------------------------------------------------------
                          Configuration Interaction
                            (a 'D E T C I' module)

                 C. David Sherrill, Daniel G. A. Smith, and
                              Matt L. Leininger
         ---------------------------------------------------------


   ==> Parameters <==

    EX LEVEL       =        2      H0 BLOCKSIZE  =     1000
    VAL EX LEVEL   =        0      H0 GUESS SIZE =     1000
    H0COUPLINGSIZE =        0      H0 COUPLING   =       NO
    MAXITER        =       24      NUM PRINT     =       20
    NUM ROOTS      =        1      ICORE         =        1
    PRINT LVL      =        1      FCI           =       NO
    R CONV         = 1.00e-06      MIXED         =      YES
    E CONV         = 1.00e-06      MIXED4        =      YES
    R4S            =       NO      REPL OTF      =       NO
    DIAG METHOD    =      SEM      FOLLOW ROOT   =        0
    PRECONDITIONER = DAVIDSON      UPDATE        = DAVIDSON
    S              =   0.0000      Ms0           =      YES
    GUESS VECTOR   =  H0BLOCK      OPENTYPE      =     NONE
    COLLAPSE SIZE  =        1      HD AVG        = EVANGELISTI
    MAX NUM VECS   =       25      REF SYM       =     AUTO
    IOPEN        =       NO

    EX ALLOW       =  1  1 
    STATE AVERAGE  =  0(1.00) 

   ==> CI Orbital and Space information <==

    RAS1 LVL      =       15      A RAS3 MAX    =        2
    RAS1 MIN      =       30      B RAS3 MAX    =        2
    A RAS1 LVL    =       15      RAS4 LVL      =       24
    A RAS1 MIN    =       14      A RAS4 MAX    =        0
    A RAS1 MAX    =       16      B RAS4 MAX    =        0
    B RAS1 LVL    =       15      RAS4 MAX      =        0
    B RAS1 MIN    =       14      A RAS34 MAX   =        2
    B RAS1 MAX    =       16      B RAS34 MAX   =        2
    RAS3 LVL      =       16      RAS34 MAX     =        2
    RAS3 MAX      =        2
   ------------------------------------
               Space    Total     A
   ------------------------------------
                 Nso       24    24
                 Nmo       24    24
               Ndocc       16    16
               Nsocc        0     0
   ------------------------------------
              CI Spaces
   ------------------------------------
        Dropped DOCC        0     0
                RAS1       16    16
                RAS2        0     0
                RAS3        8     8
                RAS4        0     0
      Active (total)       24    24
        Dropped UOCC        0     0
   ------------------------------------

   ==> Setting up CI strings <==

    There are 3489 alpha and 3489 beta strings
    The CI space requires 23361 (2.34E+04) determinants and 6 blocks

   ==> Transforming CI integrals <==

	Presorting SO-basis two-electron integrals.
	Sorting File: SO Ints (nn|nn) nbuckets = 1
	Transforming the one-electron integrals and constructing Fock matrices
	Starting first half-transformation.
	Sorting half-transformed integrals.
	First half integral transformation complete.
	Starting second half-transformation.
	Two-electron integral transformation complete.

   ==> Starting CI iterations <==

    H0 Block Eigenvalue = -224.87056614

    Simultaneous Expansion Method (Block Davidson Method)
    Using 1 initial trial vectors

     Iter   Root       Total Energy       Delta E      C RMS

   @CI  0:     0   -224.870566141195   -3.4560E+02   6.2378E-01  
   @CI  1:     0   -225.023172462627   -1.5261E-01   1.2508E-01  
   @CI  2:     0   -225.030724660022   -7.5522E-03   3.8288E-02  
   @CI  3:     0   -225.031443614154   -7.1895E-04   9.0901E-03  
   @CI  4:     0   -225.031482311458   -3.8697E-05   2.4324E-03  
   @CI  5:     0   -225.031485038041   -2.7266E-06   6.4052E-04  
   @CI  6:     0   -225.031485232126   -1.9408E-07   1.9013E-04  
   @CI  7:     0   -225.031485251276   -1.9151E-08   6.4613E-05  
   @CI  8:     0   -225.031485253179   -1.9029E-09   1.8507E-05  
   @CI  9:     0   -225.031485253340   -1.6098E-10   5.7201E-06  
   @CI 10:     0   -225.031485253356   -1.5234E-11   1.8817E-06  
   @CI 11:     0   -225.031485253357   -1.7621E-12   5.8427E-07 c

   ==> Energetics <==

    SCF energy =         -224.807986025650592
    Total CI energy =    -225.031485253357289

   ==> CISD root 0 information <==

    CISD Root 0 energy =  -225.031485253357289

   The 20 most important determinants:

    *   1   -0.947194  (    0,    0)  1AX 2AX 3AX 4AX 5AX 6AX 7AX 8AX 9AX 10AX 11AX 12AX 13AX 14AX 15AX 16AX 
    *   2    0.107651  (    2,    2)  1AX 2AX 3AX 4AX 5AX 6AX 7AX 8AX 9AX 10AX 11AX 12AX 13AX 14AX 16AX 17AX 
    *   3    0.039248  (    2,    6)  1AX 2AX 3AX 4AX 5AX 6AX 7AX 8AX 9AX 10AX 11AA 12AX 13AX 14AX 15AB 16AX 17AX 
    *   4    0.039248  (    6,    2)  1AX 2AX 3AX 4AX 5AX 6AX 7AX 8AX 9AX 10AX 11AB 12AX 13AX 14AX 15AA 16AX 17AX 
    *   5    0.038245  (    2,    4)  1AX 2AX 3AX 4AX 5AX 6AX 7AX 8AX 9AX 10AX 11AX 12AX 13AA 14AX 15AB 16AX 17AX 
    *   6    0.038245  (    4,    2)  1AX 2AX 3AX 4AX 5AX 6AX 7AX 8AX 9AX 10AX 11AX 12AX 13AB 14AX 15AA 16AX 17AX 
    *   7    0.036794  (   37,   37)  1AX 2AX 3AX 4AX 5AX 6AX 7AX 8AX 9AX 10AX 11AX 13AX 14AX 15AX 16AX 19AX 
    *   8    0.032308  (    6,    6)  1AX 2AX 3AX 4AX 5AX 6AX 7AX 8AX 9AX 10AX 12AX 13AX 14AX 15AX 16AX 17AX 
    *   9    0.030724  (    4,    4)  1AX 2AX 3AX 4AX 5AX 6AX 7AX 8AX 9AX 10AX 11AX 12AX 14AX 15AX 16AX 17AX 
    *  10    0.030044  (   70,   70)  1AX 2AX 3AX 4AX 5AX 6AX 7AX 8AX 9AX 10AX 12AX 13AX 14AX 15AX 16AX 21AX 
    *  11    0.028071  (   68,   68)  1AX 2AX 3AX 4AX 5AX 6AX 7AX 8AX 9AX 10AX 11AX 12AX 14AX 15AX 16AX 21AX 
    *  12   -0.026945  (   68,   70)  1AX 2AX 3AX 4AX 5AX 6AX 7AX 8AX 9AX 10AX 11AA 12AX 13AB 14AX 15AX 16AX 21AX 
    *  13   -0.026945  (   70,   68)  1AX 2AX 3AX 4AX 5AX 6AX 7AX 8AX 9AX 10AX 11AB 12AX 13AA 14AX 15AX 16AX 21AX 
    *  14   -0.026686  (    0,    4)  1AX 2AX 3AX 4AX 5AX 6AX 7AX 8AX 9AX 10AX 11AX 12AX 13AA 14AX 15AX 16AX 17AB 
    *  15   -0.026686  (    4,    0)  1AX 2AX 3AX 4AX 5AX 6AX 7AX 8AX 9AX 10AX 11AX 12AX 13AB 14AX 15AX 16AX 17AA 
    *  16    0.025768  (    2,   97)  1AX 2AX 3AX 4AX 5AX 6AX 7AX 8AX 9AX 10AX 11AX 12AX 13AX 14AX 15AB 16AA 17AA 23AB 
    *  17    0.025768  (   97,    2)  1AX 2AX 3AX 4AX 5AX 6AX 7AX 8AX 9AX 10AX 11AX 12AX 13AX 14AX 15AA 16AB 17AB 23AA 
    *  18    0.025344  (   57,   57)  1AX 2AX 3AX 4AX 5AX 6AX 7AX 9AX 10AX 11AX 12AX 13AX 14AX 15AX 16AX 20AX 
    *  19    0.025277  (    4,    6)  1AX 2AX 3AX 4AX 5AX 6AX 7AX 8AX 9AX 10AX 11AA 12AX 13AB 14AX 15AX 16AX 17AX 
    *  20    0.025277  (    6,    4)  1AX 2AX 3AX 4AX 5AX 6AX 7AX 8AX 9AX 10AX 11AB 12AX 13AA 14AX 15AX 16AX 17AX 

		 "A good bug is a dead bug" 

			 - Starship Troopers

		 "I didn't write FORTRAN.  That's the problem."

			 - Edward Valeev

*** tstart() called on trurls-machine
*** at Thu Mar  5 16:10:31 2020

   => Loading Basis Set <=

    Name: STO-3G
    Role: ORBITAL
    Keyword: BASIS
    atoms 1-2 entry C          line    61 file /Users/teague/anaconda3/envs/gen_env/share/psi4/basis/sto-3g.gbs 
    atoms 3-4 entry O          line    81 file /Users/teague/anaconda3/envs/gen_env/share/psi4/basis/sto-3g.gbs 
    atoms 5-8 entry H          line    19 file /Users/teague/anaconda3/envs/gen_env/share/psi4/basis/sto-3g.gbs 


         ---------------------------------------------------------
                                   SCF
               by Justin Turney, Rob Parrish, Andy Simmonett
                          and Daniel G. A. Smith
                              RHF Reference
                        1 Threads,   7629 MiB Core
         ---------------------------------------------------------

  ==> Geometry <==

    Molecular point group: c1
    Full point group: C1

    Geometry (in Angstrom), charge = 0, multiplicity = 1:

       Center              X                  Y                   Z               Mass       
    ------------   -----------------  -----------------  -----------------  -----------------
         C           -1.291483897734    -0.678730313753     0.094694076189    12.000000000000
         C           -0.002383897734     0.101969686247     0.038494076189    12.000000000000
         O            0.999316102266    -0.635730313753    -0.508105923811    15.994914619570
         O            0.161916102266     1.238469686247     0.420194076189    15.994914619570
         H           -2.075083897734    -0.057130313753     0.528194076189     1.007825032230
         H           -1.580583897734    -0.998530313753    -0.911805923811     1.007825032230
         H           -1.155183897734    -1.582730313753     0.697494076189     1.007825032230
         H            1.787116102266    -0.060130313753    -0.504505923811     1.007825032230

  Running in c1 symmetry.

  Rotational constants: A =      0.37615  B =      0.31385  C =      0.17672 [cm^-1]
  Rotational constants: A =  11276.65224  B =   9409.01720  C =   5297.90942 [MHz]
  Nuclear repulsion =  120.730832312103203

  Charge       = 0
  Multiplicity = 1
  Electrons    = 32
  Nalpha       = 16
  Nbeta        = 16

  ==> Algorithm <==

  SCF Algorithm Type is PK.
  DIIS enabled.
  MOM disabled.
  Fractional occupation disabled.
  Guess Type is SAD.
  Energy threshold   = 1.00e-06
  Density threshold  = 1.00e-06
  Integral threshold = 0.00e+00

  ==> Primary Basis <==

  Basis Set: STO-3G
    Blend: STO-3G
    Number of shells: 16
    Number of basis function: 24
    Number of Cartesian functions: 24
    Spherical Harmonics?: true
    Max angular momentum: 1

  ==> Pre-Iterations <==

   -------------------------------------------------------
    Irrep   Nso     Nmo     Nalpha   Nbeta   Ndocc  Nsocc
   -------------------------------------------------------
     A         24      24       0       0       0       0
   -------------------------------------------------------
    Total      24      24      16      16      16       0
   -------------------------------------------------------

  ==> Integral Setup <==

  Using in-core PK algorithm.
   Calculation information:
      Number of atoms:                   8
      Number of AO shells:              16
      Number of primitives:             48
      Number of atomic orbitals:        24
      Number of basis functions:        24

      Integral cutoff                 1.00e-12
      Number of threads:                 1

  Performing in-core PK
  Using 90300 doubles for integral storage.
  We computed 8906 shell quartets total.
  Whereas there are 9316 unique shell quartets.

  ==> DiskJK: Disk-Based J/K Matrices <==

    J tasked:                  Yes
    K tasked:                  Yes
    wK tasked:                  No
    Memory [MiB]:             5722
    Schwarz Cutoff:          1E-12

    OpenMP threads:              1

  Minimum eigenvalue in the overlap matrix is 2.1738243631E-01.
  Using Symmetric Orthogonalization.

  SCF Guess: Superposition of Atomic Densities via on-the-fly atomic UHF.

  ==> Iterations <==

                        Total Energy        Delta E     RMS |[F,P]|

   @RHF iter SAD:  -222.17553895180214   -2.22176e+02   0.00000e+00 
   @RHF iter   1:  -224.63773842009010   -2.46220e+00   2.05117e-02 DIIS
   @RHF iter   2:  -224.75595118512496   -1.18213e-01   1.31848e-02 DIIS
   @RHF iter   3:  -224.80586508538403   -4.99139e-02   1.53941e-03 DIIS
   @RHF iter   4:  -224.80751962413927   -1.65454e-03   7.58226e-04 DIIS
   @RHF iter   5:  -224.80792783870771   -4.08215e-04   2.30118e-04 DIIS
   @RHF iter   6:  -224.80798317596449   -5.53373e-05   5.80782e-05 DIIS
   @RHF iter   7:  -224.80798593235158   -2.75639e-06   1.15731e-05 DIIS
   @RHF iter   8:  -224.80798602231093   -8.99593e-08   2.27856e-06 DIIS
   @RHF iter   9:  -224.80798602565045   -3.33952e-09   6.31750e-07 DIIS
  Energy and wave function converged.


  ==> Post-Iterations <==

    Orbital Energies [Eh]
    ---------------------

    Doubly Occupied:                                                      

       1A    -20.305581     2A    -20.253947     3A    -11.174828  
       4A    -11.063380     5A     -1.386279     6A     -1.278585  
       7A     -0.967865     8A     -0.734182     9A     -0.611307  
      10A     -0.589550    11A     -0.586310    12A     -0.522981  
      13A     -0.490697    14A     -0.458194    15A     -0.352713  
      16A     -0.343969  

    Virtual:                                                              

      17A      0.310329    18A      0.569128    19A      0.653071  
      20A      0.682825    21A      0.698451    22A      0.715647  
      23A      0.772129    24A      1.012838  

    Final Occupation by Irrep:
              A 
    DOCC [    16 ]

  @RHF Final Energy:  -224.80798602565045

   => Energetics <=

    Nuclear Repulsion Energy =            120.7308323121032032
    One-Electron Energy =                -548.8369022823357000
    Two-Electron Energy =                 203.2980839445820607
    Total Energy =                       -224.8079860256504503

Computation Completed


Properties will be evaluated at   0.000000,   0.000000,   0.000000 [a0]

Properties computed using the SCF density matrix

  Nuclear Dipole Moment: [e a0]
     X:    -2.8291      Y:    -2.5269      Z:    -0.1791

  Electronic Dipole Moment: [e a0]
     X:     2.8168      Y:     2.2101      Z:     0.0645

  Dipole Moment: [e a0]
     X:    -0.0123      Y:    -0.3168      Z:    -0.1146     Total:     0.3371

  Dipole Moment: [D]
     X:    -0.0313      Y:    -0.8051      Z:    -0.2913     Total:     0.8567


*** tstop() called on trurls-machine at Thu Mar  5 16:10:32 2020
Module time:
	user time   =       0.34 seconds =       0.01 minutes
	system time =       0.02 seconds =       0.00 minutes
	total time  =          1 seconds =       0.02 minutes
Total time:
	user time   =       5.54 seconds =       0.09 minutes
	system time =       0.23 seconds =       0.00 minutes
	total time  =          6 seconds =       0.10 minutes
 MINTS: Wrapper to libmints.
   by Justin Turney

   Calculation information:
      Number of threads:                 1
      Number of atoms:                   8
      Number of AO shells:              16
      Number of SO shells:              16
      Number of primitives:             48
      Number of atomic orbitals:        24
      Number of basis functions:        24

      Number of irreps:                  1
      Integral cutoff                 0.00e+00
      Number of functions per irrep: [  24 ]

 OEINTS: Overlap, kinetic, potential, dipole, and quadrupole integrals
         stored in file 35.

      Computing two-electron integrals...done
      Computed 44934 non-zero two-electron integrals.
        Stored in file 33.


         ---------------------------------------------------------
                          Configuration Interaction
                            (a 'D E T C I' module)

                 C. David Sherrill, Daniel G. A. Smith, and
                              Matt L. Leininger
         ---------------------------------------------------------


   ==> Parameters <==

    EX LEVEL       =       32      H0 BLOCKSIZE  =     1000
    VAL EX LEVEL   =        0      H0 GUESS SIZE =     1000
    H0COUPLINGSIZE =        0      H0 COUPLING   =       NO
    MAXITER        =       24      NUM PRINT     =       20
    NUM ROOTS      =        1      ICORE         =        1
    PRINT LVL      =        1      FCI           =      YES
    R CONV         = 1.00e-06      MIXED         =      YES
    E CONV         = 1.00e-06      MIXED4        =      YES
    R4S            =       NO      REPL OTF      =       NO
    DIAG METHOD    =      SEM      FOLLOW ROOT   =        0
    PRECONDITIONER = DAVIDSON      UPDATE        = DAVIDSON
    S              =   0.0000      Ms0           =      YES
    GUESS VECTOR   =  H0BLOCK      OPENTYPE      =     NONE
    COLLAPSE SIZE  =        1      HD AVG        = EVANGELISTI
    MAX NUM VECS   =       25      REF SYM       =     AUTO
    IOPEN        =       NO

    EX ALLOW       =  1  1  1  1  1  1  1  1  1  1  1  1  1  1  1  1  1  1  1  1  1  1  1  1  1  1  1  1  1  1  1  1 
    STATE AVERAGE  =  0(1.00) 

   ==> CI Orbital and Space information <==

   ------------------------------------
               Space    Total     A
   ------------------------------------
                 Nso       24    24
                 Nmo       24    24
               Ndocc       16    16
               Nsocc        0     0
   ------------------------------------
              CI Spaces
   ------------------------------------
        Dropped DOCC        0     0
              Active       24    24
        Dropped UOCC        0     0
   ------------------------------------

   ==> Setting up CI strings <==

    There are 735471 alpha and 735471 beta strings
    The CI space requires 540917591841 (5.41E+11) determinants and 1 blocks

   ==> Transforming CI integrals <==

	Presorting SO-basis two-electron integrals.
	Sorting File: SO Ints (nn|nn) nbuckets = 1
	Transforming the one-electron integrals and constructing Fock matrices
	Starting first half-transformation.
	Sorting half-transformed integrals.
	First half integral transformation complete.
	Starting second half-transformation.
	Two-electron integral transformation complete.

   ==> Starting CI iterations <==

