
    -----------------------------------------------------------------------
          Psi4: An Open-Source Ab Initio Electronic Structure Package
                               Psi4 1.3.2 release

                         Git: Rev {HEAD} ecbda83 


    R. M. Parrish, L. A. Burns, D. G. A. Smith, A. C. Simmonett,
    A. E. DePrince III, E. G. Hohenstein, U. Bozkaya, A. Yu. Sokolov,
    R. Di Remigio, R. M. Richard, J. F. Gonthier, A. M. James,
    H. R. McAlexander, A. Kumar, M. Saitow, X. Wang, B. P. Pritchard,
    P. Verma, H. F. Schaefer III, K. Patkowski, R. A. King, E. F. Valeev,
    F. A. Evangelista, J. M. Turney, T. D. Crawford, and C. D. Sherrill,
    J. Chem. Theory Comput. 13(7) pp 3185--3197 (2017).
    (doi: 10.1021/acs.jctc.7b00174)


                         Additional Contributions by
    P. Kraus, H. Kruse, M. H. Lechner, M. C. Schieber, R. A. Shaw,
    A. Alenaizan, R. Galvelis, Z. L. Glick, S. Lehtola, and J. P. Misiewicz

    -----------------------------------------------------------------------


    Psi4 started on: Thursday, 05 March 2020 02:55PM

    Process ID: 50722
    Host:       trurls-machine
    PSIDATADIR: /Users/teague/anaconda3/envs/gen_env/share/psi4
    Memory:     500.0 MiB
    Threads:    1
    
  ==> Input File <==

--------------------------------------------------------------------------
"""This is a template for psi4 input format."""
import numpy
import sys

from openfermion.config import *
from openfermion.hamiltonians import MolecularData
from openfermion.ops import general_basis_change

from numpy import array

sys.path.append('/Users/teague/.local/lib/python3.7/site-packages/openfermionpsi4')
from _psi4_conversion_functions import *


# Set memory that job can use in megabytes.
memory 8000 mb

# Initialize molecular data.
_description = 'NIST'
if _description == 'None':
    _description = None
molecule = MolecularData([('C', (0.5984, 0.8354, 0.7035)), ('C', (2.0205, 1.1102, 1.125)), ('O', (2.5939, 2.1646, 0.9686)), ('H', (0.0019, 0.544, 1.5781)), ('H', (0.1623, 1.7187, 0.2315)), ('H', (0.5736, -0.014, 0.0082)), ('H', (2.5387, 0.2513, 1.6103))],
                         'sto-3g',
                         1,
                         0,
                         _description,
                          filename='molecule_data/Ethanal_sto-3g_singlet_NIST')

# Set molecular geometry and symmetry.
molecule mol {
C 0.5984 0.8354 0.7035
C 2.0205 1.1102 1.125
O 2.5939 2.1646 0.9686
H 0.0019 0.544 1.5781
H 0.1623 1.7187 0.2315
H 0.5736 -0.014 0.0082
H 2.5387 0.2513 1.6103
symmetry c1
}
mol.set_multiplicity(1)
mol.set_molecular_charge(0)

# Set reference and guess.
if molecule.multiplicity == 1:
    set reference rhf
    set guess sad
else:
    set reference rohf
    set guess gwh

# Set global parameters of calculation.
set globals {
    basis sto-3g
    freeze_core false
    fail_on_maxiter True
    df_scf_guess false
    opdm true
    tpdm true
    soscf false
    scf_type pk
    maxiter 1e6
    num_amps_print 1e6
    r_convergence 1e-6
    d_convergence 1e-6
    e_convergence 1e-6
    ints_tolerance EQUALITY_TOLERANCE
    damping_percentage 0
}

# Run self-consistent field (SCF) calculation.
if True:
    try:
        hf_energy, hf_wavefunction = energy('scf', return_wfn=True)
        if False:
            print('Hartree-Fock energy for {} ({} electrons) is {}.'.format(
                molecule.name, molecule.n_electrons, hf_energy))
    except:
        if False:
            print('WARNING: SCF calculation failed.')
        else:
            raise
    finally:
        # Get orbitals and Fock matrix.
        molecule.hf_energy = hf_energy
        molecule.nuclear_repulsion = mol.nuclear_repulsion_energy()
        molecule.canonical_orbitals = numpy.asarray(hf_wavefunction.Ca())
        molecule.overlap_integrals = numpy.asarray(hf_wavefunction.S())
        molecule.n_orbitals = molecule.canonical_orbitals.shape[0]
        molecule.n_qubits = 2 * molecule.n_orbitals
        molecule.orbital_energies = numpy.asarray(hf_wavefunction.epsilon_a())
        molecule.fock_matrix = numpy.asarray(hf_wavefunction.Fa())

        # Get integrals using MintsHelper.
        mints = MintsHelper(hf_wavefunction.basisset())
        molecule.one_body_integrals = general_basis_change(
            numpy.asarray(mints.ao_kinetic()), molecule.canonical_orbitals, (1, 0))
        molecule.one_body_integrals += general_basis_change(
            numpy.asarray(mints.ao_potential()), molecule.canonical_orbitals, (1, 0))
        two_body_integrals = numpy.asarray(mints.ao_eri())
        two_body_integrals.reshape((molecule.n_orbitals, molecule.n_orbitals,
                                    molecule.n_orbitals, molecule.n_orbitals))
        two_body_integrals = numpy.einsum('psqr', two_body_integrals)
        two_body_integrals = general_basis_change(
            two_body_integrals, molecule.canonical_orbitals, (1, 1, 0, 0))
        molecule.two_body_integrals = two_body_integrals
        molecule.save()


# Perform MP2 energy calculation if there are at least two electrons.
if True:
    try:
        assert molecule.n_electrons > 1
        mp2_energy = energy('mp2')
        if False:
            print('MP2 energy for {} ({} electrons) is {}.'.format(
                molecule.name, molecule.n_electrons, mp2_energy))
    except:
        if False:
            print('WARNING: MP2 calculation failed.')
        else:
            raise
    else:
        molecule.mp2_energy = mp2_energy
        molecule.save()


# Perform configuration interaction singles and doubles (CISD) calculation.
if True:
    set qc_module detci
    try:
        cisd_energy, cisd_wavefunction = energy('cisd', return_wfn=True)
        if False:
            print('CISD energy for {} ({} electrons) is {}.'.format(
                molecule.name, molecule.n_electrons, cisd_energy))
    except:
        if False:
            print('WARNING: CISD calculation failed.')
        else:
            raise
    else:
        # For the functions below, "a" and "b" refer to "up and "down" spins.
        molecule.cisd_energy = cisd_energy

        # Get 1-RDM from CISD calculation.
        cisd_one_rdm_a = numpy.array(cisd_wavefunction.get_opdm(
            0, 0, 'A', True)).reshape(molecule.n_orbitals, molecule.n_orbitals)
        cisd_one_rdm_b = numpy.array(cisd_wavefunction.get_opdm(
            0, 0, 'B', True)).reshape(molecule.n_orbitals, molecule.n_orbitals)

        # Get 2-RDM from CISD calculation.
        cisd_two_rdm_aa = numpy.array(cisd_wavefunction.get_tpdm(
            'AA', False)).reshape(molecule.n_orbitals, molecule.n_orbitals,
                                  molecule.n_orbitals, molecule.n_orbitals)
        cisd_two_rdm_ab = numpy.array(cisd_wavefunction.get_tpdm(
            'AB', False)).reshape(molecule.n_orbitals, molecule.n_orbitals,
                                  molecule.n_orbitals, molecule.n_orbitals)
        cisd_two_rdm_bb = numpy.array(cisd_wavefunction.get_tpdm(
            'BB', False)).reshape(molecule.n_orbitals, molecule.n_orbitals,
                                  molecule.n_orbitals, molecule.n_orbitals)

        # Get overall RDMs.
        cisd_one_rdm, cisd_two_rdm = unpack_spatial_rdm(
            cisd_one_rdm_a, cisd_one_rdm_b, cisd_two_rdm_aa,
            cisd_two_rdm_ab, cisd_two_rdm_bb)

        # Store 1-RDM in molecule file, 2-RDM separately in other file.
        molecule.cisd_one_rdm = cisd_one_rdm
        molecule.cisd_two_rdm = cisd_two_rdm
        molecule.save()


# Perform exact diagonalization.
if True:
    set qc_module detci
    try:
        fci_energy, fci_wavefunction = energy('fci', return_wfn=True)
        if False:
            print('FCI energy for {} ({} electrons) is {}.'.format(
                molecule.name, molecule.n_electrons, fci_energy))
    except:
        if False:
            print('WARNING: FCI calculation failed.')
        else:
            raise
    finally:
        # For the functions below, "a" and "b" refer to "up and "down" spins.
        molecule.fci_energy = fci_energy

        # Get 1-RDM from FCI calculation.
        fci_one_rdm_a = numpy.array(fci_wavefunction.get_opdm(
            0, 0, 'A', True)).reshape(molecule.n_orbitals, molecule.n_orbitals)
        fci_one_rdm_b = numpy.array(fci_wavefunction.get_opdm(
            0, 0, 'B', True)).reshape(molecule.n_orbitals, molecule.n_orbitals)

        # Get 2-RDM from FCI calculation.
        fci_two_rdm_aa = numpy.array(fci_wavefunction.get_tpdm(
            'AA', False)).reshape(molecule.n_orbitals, molecule.n_orbitals,
                                  molecule.n_orbitals, molecule.n_orbitals)
        fci_two_rdm_ab = numpy.array(fci_wavefunction.get_tpdm(
            'AB', False)).reshape(molecule.n_orbitals, molecule.n_orbitals,
                                  molecule.n_orbitals, molecule.n_orbitals)
        fci_two_rdm_bb = numpy.array(fci_wavefunction.get_tpdm(
            'BB', False)).reshape(molecule.n_orbitals, molecule.n_orbitals,
                                  molecule.n_orbitals, molecule.n_orbitals)

        # Get overall RDMs.
        fci_one_rdm, fci_two_rdm = unpack_spatial_rdm(
            fci_one_rdm_a, fci_one_rdm_b,
            fci_two_rdm_aa, fci_two_rdm_ab, fci_two_rdm_bb)

        # Store 1-RDM in molecule file, 2-RDM separately in other file.
        molecule.fci_one_rdm = fci_one_rdm
        molecule.fci_two_rdm = fci_two_rdm
        molecule.save()


# Perform coupled cluster singles and doubles (CCSD) calculation.
if True:
    set qc_module ccenergy
    try:
        ccsd_energy = energy('ccsd')
        if False:
            print('CCSD energy for {} ({} electrons) is {}.'.format(
                molecule.name, molecule.n_electrons, ccsd_energy))
    except:
        if False:
            print('WARNING: CCSD calculation failed.')
        else:
            raise
    else:
        molecule.ccsd_energy = ccsd_energy

        # Merge CC amplitudes into molecule by parsing
        psi_filename = outfile_name()
        single_cc_amplitudes, double_cc_amplitudes = (
            parse_psi4_ccsd_amplitudes(
                2 * molecule.n_orbitals,
                molecule.get_n_alpha_electrons(),
                molecule.get_n_beta_electrons(),
                psi_filename))

        molecule.ccsd_single_amps = single_cc_amplitudes
        molecule.ccsd_double_amps = double_cc_amplitudes
        molecule.save()
--------------------------------------------------------------------------

  Memory set to   7.451 GiB by Python driver.

*** tstart() called on trurls-machine
*** at Thu Mar  5 14:56:00 2020

   => Loading Basis Set <=

    Name: STO-3G
    Role: ORBITAL
    Keyword: BASIS
    atoms 1-2 entry C          line    61 file /Users/teague/anaconda3/envs/gen_env/share/psi4/basis/sto-3g.gbs 
    atoms 3   entry O          line    81 file /Users/teague/anaconda3/envs/gen_env/share/psi4/basis/sto-3g.gbs 
    atoms 4-7 entry H          line    19 file /Users/teague/anaconda3/envs/gen_env/share/psi4/basis/sto-3g.gbs 


         ---------------------------------------------------------
                                   SCF
               by Justin Turney, Rob Parrish, Andy Simmonett
                          and Daniel G. A. Smith
                              RHF Reference
                        1 Threads,   7629 MiB Core
         ---------------------------------------------------------

  ==> Geometry <==

    Molecular point group: c1
    Full point group: C1

    Geometry (in Angstrom), charge = 0, multiplicity = 1:

       Center              X                  Y                   Z               Mass       
    ------------   -----------------  -----------------  -----------------  -----------------
         C           -1.132799199959    -0.538539483820    -0.225255731718    12.000000000000
         C            0.289300800041    -0.263739483820     0.196244268282    12.000000000000
         O            0.862700800041     0.790660516180     0.039844268282    15.994914619570
         H           -1.729299199959    -0.829939483820     0.649344268282     1.007825032230
         H           -1.568899199959     0.344760516180    -0.697255731718     1.007825032230
         H           -1.157599199959    -1.387939483820    -0.920555731718     1.007825032230
         H            0.807500800041    -1.122639483820     0.681544268282     1.007825032230

  Running in c1 symmetry.

  Rotational constants: A =      1.89684  B =      0.33608  C =      0.30146 [cm^-1]
  Rotational constants: A =  56865.75285  B =  10075.49373  C =   9037.63282 [MHz]
  Nuclear repulsion =   69.477358531954025

  Charge       = 0
  Multiplicity = 1
  Electrons    = 24
  Nalpha       = 12
  Nbeta        = 12

  ==> Algorithm <==

  SCF Algorithm Type is PK.
  DIIS enabled.
  MOM disabled.
  Fractional occupation disabled.
  Guess Type is SAD.
  Energy threshold   = 1.00e-06
  Density threshold  = 1.00e-06
  Integral threshold = 0.00e+00

  ==> Primary Basis <==

  Basis Set: STO-3G
    Blend: STO-3G
    Number of shells: 13
    Number of basis function: 19
    Number of Cartesian functions: 19
    Spherical Harmonics?: true
    Max angular momentum: 1

  ==> Pre-Iterations <==

   -------------------------------------------------------
    Irrep   Nso     Nmo     Nalpha   Nbeta   Ndocc  Nsocc
   -------------------------------------------------------
     A         19      19       0       0       0       0
   -------------------------------------------------------
    Total      19      19      12      12      12       0
   -------------------------------------------------------

  ==> Integral Setup <==

  Using in-core PK algorithm.
   Calculation information:
      Number of atoms:                   7
      Number of AO shells:              13
      Number of primitives:             39
      Number of atomic orbitals:        19
      Number of basis functions:        19

      Integral cutoff                 1.00e-12
      Number of threads:                 1

  Performing in-core PK
  Using 36290 doubles for integral storage.
  We computed 4093 shell quartets total.
  Whereas there are 4186 unique shell quartets.

  ==> DiskJK: Disk-Based J/K Matrices <==

    J tasked:                  Yes
    K tasked:                  Yes
    wK tasked:                  No
    Memory [MiB]:             5722
    Schwarz Cutoff:          1E-12

    OpenMP threads:              1

  Minimum eigenvalue in the overlap matrix is 2.1674361668E-01.
  Using Symmetric Orthogonalization.

  SCF Guess: Superposition of Atomic Densities via on-the-fly atomic UHF.

  ==> Iterations <==

                        Total Energy        Delta E     RMS |[F,P]|

   @RHF iter SAD:  -148.66746046600304   -1.48667e+02   0.00000e+00 
   @RHF iter   1:  -150.81411143183425   -2.14665e+00   2.23528e-02 DIIS
   @RHF iter   2:  -150.89175599866857   -7.76446e-02   1.69548e-02 DIIS
   @RHF iter   3:  -150.94362848427687   -5.18725e-02   1.54400e-03 DIIS
   @RHF iter   4:  -150.94477356521179   -1.14508e-03   4.47894e-04 DIIS
   @RHF iter   5:  -150.94487331559986   -9.97504e-05   1.54731e-04 DIIS
   @RHF iter   6:  -150.94488406490342   -1.07493e-05   2.99316e-05 DIIS
   @RHF iter   7:  -150.94488441081543   -3.45912e-07   4.15926e-06 DIIS
   @RHF iter   8:  -150.94488441725750   -6.44206e-09   3.86915e-07 DIIS
  Energy and wave function converged.


  ==> Post-Iterations <==

    Orbital Energies [Eh]
    ---------------------

    Doubly Occupied:                                                      

       1A    -20.289998     2A    -11.122984     3A    -11.056198  
       4A     -1.332505     5A     -0.962902     6A     -0.741634  
       7A     -0.611154     8A     -0.558475     9A     -0.545518  
      10A     -0.500571    11A     -0.415465    12A     -0.336435  

    Virtual:                                                              

      13A      0.293669    14A      0.621250    15A      0.666555  
      16A      0.695064    17A      0.718365    18A      0.766508  
      19A      0.982993  

    Final Occupation by Irrep:
              A 
    DOCC [    12 ]

  @RHF Final Energy:  -150.94488441725750

   => Energetics <=

    Nuclear Repulsion Energy =             69.4773585319540246
    One-Electron Energy =                -343.8968042004254926
    Two-Electron Energy =                 123.4745612512139417
    Total Energy =                       -150.9448844172574979

Computation Completed


Properties will be evaluated at   0.000000,   0.000000,   0.000000 [a0]

Properties computed using the SCF density matrix

  Nuclear Dipole Moment: [e a0]
     X:    -3.4160      Y:    -2.8046      Z:    -0.2688

  Electronic Dipole Moment: [e a0]
     X:     3.0059      Y:     2.2310      Z:     0.3187

  Dipole Moment: [e a0]
     X:    -0.4101      Y:    -0.5736      Z:     0.0499     Total:     0.7069

  Dipole Moment: [D]
     X:    -1.0424      Y:    -1.4580      Z:     0.1268     Total:     1.7968


*** tstop() called on trurls-machine at Thu Mar  5 14:56:00 2020
Module time:
	user time   =       0.32 seconds =       0.01 minutes
	system time =       0.02 seconds =       0.00 minutes
	total time  =          0 seconds =       0.00 minutes
Total time:
	user time   =       0.32 seconds =       0.01 minutes
	system time =       0.02 seconds =       0.00 minutes
	total time  =          0 seconds =       0.00 minutes

*** tstart() called on trurls-machine
*** at Thu Mar  5 14:56:00 2020

   => Loading Basis Set <=

    Name: STO-3G
    Role: ORBITAL
    Keyword: BASIS
    atoms 1-2 entry C          line    61 file /Users/teague/anaconda3/envs/gen_env/share/psi4/basis/sto-3g.gbs 
    atoms 3   entry O          line    81 file /Users/teague/anaconda3/envs/gen_env/share/psi4/basis/sto-3g.gbs 
    atoms 4-7 entry H          line    19 file /Users/teague/anaconda3/envs/gen_env/share/psi4/basis/sto-3g.gbs 


         ---------------------------------------------------------
                                   SCF
               by Justin Turney, Rob Parrish, Andy Simmonett
                          and Daniel G. A. Smith
                              RHF Reference
                        1 Threads,   7629 MiB Core
         ---------------------------------------------------------

  ==> Geometry <==

    Molecular point group: c1
    Full point group: C1

    Geometry (in Angstrom), charge = 0, multiplicity = 1:

       Center              X                  Y                   Z               Mass       
    ------------   -----------------  -----------------  -----------------  -----------------
         C           -1.132799199959    -0.538539483820    -0.225255731718    12.000000000000
         C            0.289300800041    -0.263739483820     0.196244268282    12.000000000000
         O            0.862700800041     0.790660516180     0.039844268282    15.994914619570
         H           -1.729299199959    -0.829939483820     0.649344268282     1.007825032230
         H           -1.568899199959     0.344760516180    -0.697255731718     1.007825032230
         H           -1.157599199959    -1.387939483820    -0.920555731718     1.007825032230
         H            0.807500800041    -1.122639483820     0.681544268282     1.007825032230

  Running in c1 symmetry.

  Rotational constants: A =      1.89684  B =      0.33608  C =      0.30146 [cm^-1]
  Rotational constants: A =  56865.75285  B =  10075.49373  C =   9037.63282 [MHz]
  Nuclear repulsion =   69.477358531954025

  Charge       = 0
  Multiplicity = 1
  Electrons    = 24
  Nalpha       = 12
  Nbeta        = 12

  ==> Algorithm <==

  SCF Algorithm Type is PK.
  DIIS enabled.
  MOM disabled.
  Fractional occupation disabled.
  Guess Type is SAD.
  Energy threshold   = 1.00e-06
  Density threshold  = 1.00e-06
  Integral threshold = 0.00e+00

  ==> Primary Basis <==

  Basis Set: STO-3G
    Blend: STO-3G
    Number of shells: 13
    Number of basis function: 19
    Number of Cartesian functions: 19
    Spherical Harmonics?: true
    Max angular momentum: 1

  ==> Pre-Iterations <==

   -------------------------------------------------------
    Irrep   Nso     Nmo     Nalpha   Nbeta   Ndocc  Nsocc
   -------------------------------------------------------
     A         19      19       0       0       0       0
   -------------------------------------------------------
    Total      19      19      12      12      12       0
   -------------------------------------------------------

  ==> Integral Setup <==

  Using in-core PK algorithm.
   Calculation information:
      Number of atoms:                   7
      Number of AO shells:              13
      Number of primitives:             39
      Number of atomic orbitals:        19
      Number of basis functions:        19

      Integral cutoff                 1.00e-12
      Number of threads:                 1

  Performing in-core PK
  Using 36290 doubles for integral storage.
  We computed 4093 shell quartets total.
  Whereas there are 4186 unique shell quartets.

  ==> DiskJK: Disk-Based J/K Matrices <==

    J tasked:                  Yes
    K tasked:                  Yes
    wK tasked:                  No
    Memory [MiB]:             5722
    Schwarz Cutoff:          1E-12

    OpenMP threads:              1

  Minimum eigenvalue in the overlap matrix is 2.1674361668E-01.
  Using Symmetric Orthogonalization.

  SCF Guess: Superposition of Atomic Densities via on-the-fly atomic UHF.

  ==> Iterations <==

                        Total Energy        Delta E     RMS |[F,P]|

   @RHF iter SAD:  -148.66746046600301   -1.48667e+02   0.00000e+00 
   @RHF iter   1:  -150.81411143183399   -2.14665e+00   2.23528e-02 DIIS
   @RHF iter   2:  -150.89175599866832   -7.76446e-02   1.69548e-02 DIIS
   @RHF iter   3:  -150.94362848427653   -5.18725e-02   1.54400e-03 DIIS
   @RHF iter   4:  -150.94477356521139   -1.14508e-03   4.47894e-04 DIIS
   @RHF iter   5:  -150.94487331559955   -9.97504e-05   1.54731e-04 DIIS
   @RHF iter   6:  -150.94488406490308   -1.07493e-05   2.99316e-05 DIIS
   @RHF iter   7:  -150.94488441081529   -3.45912e-07   4.15926e-06 DIIS
   @RHF iter   8:  -150.94488441725730   -6.44201e-09   3.86915e-07 DIIS
  Energy and wave function converged.


  ==> Post-Iterations <==

    Orbital Energies [Eh]
    ---------------------

    Doubly Occupied:                                                      

       1A    -20.289998     2A    -11.122984     3A    -11.056198  
       4A     -1.332505     5A     -0.962902     6A     -0.741634  
       7A     -0.611154     8A     -0.558475     9A     -0.545518  
      10A     -0.500571    11A     -0.415465    12A     -0.336435  

    Virtual:                                                              

      13A      0.293669    14A      0.621250    15A      0.666555  
      16A      0.695064    17A      0.718365    18A      0.766508  
      19A      0.982993  

    Final Occupation by Irrep:
              A 
    DOCC [    12 ]

  @RHF Final Energy:  -150.94488441725730

   => Energetics <=

    Nuclear Repulsion Energy =             69.4773585319540246
    One-Electron Energy =                -343.8968042004250947
    Two-Electron Energy =                 123.4745612512137996
    Total Energy =                       -150.9448844172572990

Computation Completed


Properties will be evaluated at   0.000000,   0.000000,   0.000000 [a0]

Properties computed using the SCF density matrix

  Nuclear Dipole Moment: [e a0]
     X:    -3.4160      Y:    -2.8046      Z:    -0.2688

  Electronic Dipole Moment: [e a0]
     X:     3.0059      Y:     2.2310      Z:     0.3187

  Dipole Moment: [e a0]
     X:    -0.4101      Y:    -0.5736      Z:     0.0499     Total:     0.7069

  Dipole Moment: [D]
     X:    -1.0424      Y:    -1.4580      Z:     0.1268     Total:     1.7968


*** tstop() called on trurls-machine at Thu Mar  5 14:56:01 2020
Module time:
	user time   =       0.31 seconds =       0.01 minutes
	system time =       0.02 seconds =       0.00 minutes
	total time  =          1 seconds =       0.02 minutes
Total time:
	user time   =       0.79 seconds =       0.01 minutes
	system time =       0.04 seconds =       0.00 minutes
	total time  =          1 seconds =       0.02 minutes

*** tstart() called on trurls-machine
*** at Thu Mar  5 14:56:01 2020


  //>>>>>>>>>>>>>>>>>>>>>>>>>>>>>>>>>>>//
  //               DFMP2               //
  //<<<<<<<<<<<<<<<<<<<<<<<<<<<<<<<<<<<//

   => Loading Basis Set <=

    Name: (STO-3G AUX)
    Role: RIFIT
    Keyword: DF_BASIS_MP2
    atoms 1-2 entry C          line   270 file /Users/teague/anaconda3/envs/gen_env/share/psi4/basis/def2-qzvpp-ri.gbs 
    atoms 3   entry O          line   406 file /Users/teague/anaconda3/envs/gen_env/share/psi4/basis/def2-qzvpp-ri.gbs 
    atoms 4-7 entry H          line    24 file /Users/teague/anaconda3/envs/gen_env/share/psi4/basis/def2-qzvpp-ri.gbs 

	 --------------------------------------------------------
	                          DF-MP2                         
	      2nd-Order Density-Fitted Moller-Plesset Theory     
	              RMP2 Wavefunction,   1 Threads             
	                                                         
	        Rob Parrish, Justin Turney, Andy Simmonett,      
	           Ed Hohenstein, and C. David Sherrill          
	 --------------------------------------------------------

   => Auxiliary Basis Set <=

  Basis Set: (STO-3G AUX)
    Blend: DEF2-QZVPP-RI
    Number of shells: 163
    Number of basis function: 647
    Number of Cartesian functions: 857
    Spherical Harmonics?: true
    Max angular momentum: 5

	 --------------------------------------------------------
	                 NBF =    19, NAUX =   647
	 --------------------------------------------------------
	   CLASS    FOCC     OCC    AOCC    AVIR     VIR    FVIR
	   PAIRS       0      12      12       7       7       0
	 --------------------------------------------------------

	-----------------------------------------------------------
	 ==================> DF-MP2 Energies <==================== 
	-----------------------------------------------------------
	 Reference Energy          =    -150.9448844172572990 [Eh]
	 Singles Energy            =      -0.0000000000000000 [Eh]
	 Same-Spin Energy          =      -0.0268059363325447 [Eh]
	 Opposite-Spin Energy      =      -0.1404602569328196 [Eh]
	 Correlation Energy        =      -0.1672661932653643 [Eh]
	 Total Energy              =    -151.1121506105226615 [Eh]
	-----------------------------------------------------------
	 ================> DF-SCS-MP2 Energies <================== 
	-----------------------------------------------------------
	 SCS Same-Spin Scale       =       0.3333333333333333 [-]
	 SCS Opposite-Spin Scale   =       1.2000000000000000 [-]
	 SCS Same-Spin Energy      =      -0.0089353121108482 [Eh]
	 SCS Opposite-Spin Energy  =      -0.1685523083193835 [Eh]
	 SCS Correlation Energy    =      -0.1774876204302318 [Eh]
	 SCS Total Energy          =    -151.1223720376875406 [Eh]
	-----------------------------------------------------------


*** tstop() called on trurls-machine at Thu Mar  5 14:56:01 2020
Module time:
	user time   =       0.29 seconds =       0.00 minutes
	system time =       0.01 seconds =       0.00 minutes
	total time  =          0 seconds =       0.00 minutes
Total time:
	user time   =       1.09 seconds =       0.02 minutes
	system time =       0.05 seconds =       0.00 minutes
	total time  =          1 seconds =       0.02 minutes

*** tstart() called on trurls-machine
*** at Thu Mar  5 14:56:01 2020

   => Loading Basis Set <=

    Name: STO-3G
    Role: ORBITAL
    Keyword: BASIS
    atoms 1-2 entry C          line    61 file /Users/teague/anaconda3/envs/gen_env/share/psi4/basis/sto-3g.gbs 
    atoms 3   entry O          line    81 file /Users/teague/anaconda3/envs/gen_env/share/psi4/basis/sto-3g.gbs 
    atoms 4-7 entry H          line    19 file /Users/teague/anaconda3/envs/gen_env/share/psi4/basis/sto-3g.gbs 


         ---------------------------------------------------------
                                   SCF
               by Justin Turney, Rob Parrish, Andy Simmonett
                          and Daniel G. A. Smith
                              RHF Reference
                        1 Threads,   7629 MiB Core
         ---------------------------------------------------------

  ==> Geometry <==

    Molecular point group: c1
    Full point group: C1

    Geometry (in Angstrom), charge = 0, multiplicity = 1:

       Center              X                  Y                   Z               Mass       
    ------------   -----------------  -----------------  -----------------  -----------------
         C           -1.132799199959    -0.538539483820    -0.225255731718    12.000000000000
         C            0.289300800041    -0.263739483820     0.196244268282    12.000000000000
         O            0.862700800041     0.790660516180     0.039844268282    15.994914619570
         H           -1.729299199959    -0.829939483820     0.649344268282     1.007825032230
         H           -1.568899199959     0.344760516180    -0.697255731718     1.007825032230
         H           -1.157599199959    -1.387939483820    -0.920555731718     1.007825032230
         H            0.807500800041    -1.122639483820     0.681544268282     1.007825032230

  Running in c1 symmetry.

  Rotational constants: A =      1.89684  B =      0.33608  C =      0.30146 [cm^-1]
  Rotational constants: A =  56865.75285  B =  10075.49373  C =   9037.63282 [MHz]
  Nuclear repulsion =   69.477358531954025

  Charge       = 0
  Multiplicity = 1
  Electrons    = 24
  Nalpha       = 12
  Nbeta        = 12

  ==> Algorithm <==

  SCF Algorithm Type is PK.
  DIIS enabled.
  MOM disabled.
  Fractional occupation disabled.
  Guess Type is SAD.
  Energy threshold   = 1.00e-06
  Density threshold  = 1.00e-06
  Integral threshold = 0.00e+00

  ==> Primary Basis <==

  Basis Set: STO-3G
    Blend: STO-3G
    Number of shells: 13
    Number of basis function: 19
    Number of Cartesian functions: 19
    Spherical Harmonics?: true
    Max angular momentum: 1

  ==> Pre-Iterations <==

   -------------------------------------------------------
    Irrep   Nso     Nmo     Nalpha   Nbeta   Ndocc  Nsocc
   -------------------------------------------------------
     A         19      19       0       0       0       0
   -------------------------------------------------------
    Total      19      19      12      12      12       0
   -------------------------------------------------------

  ==> Integral Setup <==

  Using in-core PK algorithm.
   Calculation information:
      Number of atoms:                   7
      Number of AO shells:              13
      Number of primitives:             39
      Number of atomic orbitals:        19
      Number of basis functions:        19

      Integral cutoff                 1.00e-12
      Number of threads:                 1

  Performing in-core PK
  Using 36290 doubles for integral storage.
  We computed 4093 shell quartets total.
  Whereas there are 4186 unique shell quartets.

  ==> DiskJK: Disk-Based J/K Matrices <==

    J tasked:                  Yes
    K tasked:                  Yes
    wK tasked:                  No
    Memory [MiB]:             5722
    Schwarz Cutoff:          1E-12

    OpenMP threads:              1

  Minimum eigenvalue in the overlap matrix is 2.1674361668E-01.
  Using Symmetric Orthogonalization.

  SCF Guess: Superposition of Atomic Densities via on-the-fly atomic UHF.

  ==> Iterations <==

                        Total Energy        Delta E     RMS |[F,P]|

   @RHF iter SAD:  -148.66746046600304   -1.48667e+02   0.00000e+00 
   @RHF iter   1:  -150.81411143183402   -2.14665e+00   2.23528e-02 DIIS
   @RHF iter   2:  -150.89175599866826   -7.76446e-02   1.69548e-02 DIIS
   @RHF iter   3:  -150.94362848427676   -5.18725e-02   1.54400e-03 DIIS
   @RHF iter   4:  -150.94477356521151   -1.14508e-03   4.47894e-04 DIIS
   @RHF iter   5:  -150.94487331559972   -9.97504e-05   1.54731e-04 DIIS
   @RHF iter   6:  -150.94488406490333   -1.07493e-05   2.99316e-05 DIIS
   @RHF iter   7:  -150.94488441081526   -3.45912e-07   4.15926e-06 DIIS
   @RHF iter   8:  -150.94488441725730   -6.44204e-09   3.86915e-07 DIIS
  Energy and wave function converged.


  ==> Post-Iterations <==

    Orbital Energies [Eh]
    ---------------------

    Doubly Occupied:                                                      

       1A    -20.289998     2A    -11.122984     3A    -11.056198  
       4A     -1.332505     5A     -0.962902     6A     -0.741634  
       7A     -0.611154     8A     -0.558475     9A     -0.545518  
      10A     -0.500571    11A     -0.415465    12A     -0.336435  

    Virtual:                                                              

      13A      0.293669    14A      0.621250    15A      0.666555  
      16A      0.695064    17A      0.718365    18A      0.766508  
      19A      0.982993  

    Final Occupation by Irrep:
              A 
    DOCC [    12 ]

  @RHF Final Energy:  -150.94488441725730

   => Energetics <=

    Nuclear Repulsion Energy =             69.4773585319540246
    One-Electron Energy =                -343.8968042004253221
    Two-Electron Energy =                 123.4745612512140411
    Total Energy =                       -150.9448844172572990

Computation Completed


Properties will be evaluated at   0.000000,   0.000000,   0.000000 [a0]

Properties computed using the SCF density matrix

  Nuclear Dipole Moment: [e a0]
     X:    -3.4160      Y:    -2.8046      Z:    -0.2688

  Electronic Dipole Moment: [e a0]
     X:     3.0059      Y:     2.2310      Z:     0.3187

  Dipole Moment: [e a0]
     X:    -0.4101      Y:    -0.5736      Z:     0.0499     Total:     0.7069

  Dipole Moment: [D]
     X:    -1.0424      Y:    -1.4580      Z:     0.1268     Total:     1.7968


*** tstop() called on trurls-machine at Thu Mar  5 14:56:01 2020
Module time:
	user time   =       0.32 seconds =       0.01 minutes
	system time =       0.02 seconds =       0.00 minutes
	total time  =          0 seconds =       0.00 minutes
Total time:
	user time   =       1.45 seconds =       0.02 minutes
	system time =       0.07 seconds =       0.00 minutes
	total time  =          1 seconds =       0.02 minutes
 MINTS: Wrapper to libmints.
   by Justin Turney

   Calculation information:
      Number of threads:                 1
      Number of atoms:                   7
      Number of AO shells:              13
      Number of SO shells:              13
      Number of primitives:             39
      Number of atomic orbitals:        19
      Number of basis functions:        19

      Number of irreps:                  1
      Integral cutoff                 0.00e+00
      Number of functions per irrep: [  19 ]

 OEINTS: Overlap, kinetic, potential, dipole, and quadrupole integrals
         stored in file 35.

      Computing two-electron integrals...done
      Computed 17983 non-zero two-electron integrals.
        Stored in file 33.


         ---------------------------------------------------------
                          Configuration Interaction
                            (a 'D E T C I' module)

                 C. David Sherrill, Daniel G. A. Smith, and
                              Matt L. Leininger
         ---------------------------------------------------------


   ==> Parameters <==

    EX LEVEL       =        2      H0 BLOCKSIZE  =     1000
    VAL EX LEVEL   =        0      H0 GUESS SIZE =     1000
    H0COUPLINGSIZE =        0      H0 COUPLING   =       NO
    MAXITER        =       24      NUM PRINT     =       20
    NUM ROOTS      =        1      ICORE         =        1
    PRINT LVL      =        1      FCI           =       NO
    R CONV         = 1.00e-06      MIXED         =      YES
    E CONV         = 1.00e-06      MIXED4        =      YES
    R4S            =       NO      REPL OTF      =       NO
    DIAG METHOD    =      SEM      FOLLOW ROOT   =        0
    PRECONDITIONER = DAVIDSON      UPDATE        = DAVIDSON
    S              =   0.0000      Ms0           =      YES
    GUESS VECTOR   =  H0BLOCK      OPENTYPE      =     NONE
    COLLAPSE SIZE  =        1      HD AVG        = EVANGELISTI
    MAX NUM VECS   =       25      REF SYM       =     AUTO
    IOPEN        =       NO

    EX ALLOW       =  1  1 
    STATE AVERAGE  =  0(1.00) 

   ==> CI Orbital and Space information <==

    RAS1 LVL      =       11      A RAS3 MAX    =        2
    RAS1 MIN      =       22      B RAS3 MAX    =        2
    A RAS1 LVL    =       11      RAS4 LVL      =       19
    A RAS1 MIN    =       10      A RAS4 MAX    =        0
    A RAS1 MAX    =       12      B RAS4 MAX    =        0
    B RAS1 LVL    =       11      RAS4 MAX      =        0
    B RAS1 MIN    =       10      A RAS34 MAX   =        2
    B RAS1 MAX    =       12      B RAS34 MAX   =        2
    RAS3 LVL      =       12      RAS34 MAX     =        2
    RAS3 MAX      =        2
   ------------------------------------
               Space    Total     A
   ------------------------------------
                 Nso       19    19
                 Nmo       19    19
               Ndocc       12    12
               Nsocc        0     0
   ------------------------------------
              CI Spaces
   ------------------------------------
        Dropped DOCC        0     0
                RAS1       12    12
                RAS2        0     0
                RAS3        7     7
                RAS4        0     0
      Active (total)       19    19
        Dropped UOCC        0     0
   ------------------------------------

   ==> Setting up CI strings <==

    There are 1471 alpha and 1471 beta strings
    The CI space requires 9997 (1.00E+04) determinants and 6 blocks

   ==> Transforming CI integrals <==

	Presorting SO-basis two-electron integrals.
	Sorting File: SO Ints (nn|nn) nbuckets = 1
	Transforming the one-electron integrals and constructing Fock matrices
	Starting first half-transformation.
	Sorting half-transformed integrals.
	First half integral transformation complete.
	Starting second half-transformation.
	Two-electron integral transformation complete.

   ==> Starting CI iterations <==

    H0 Block Eigenvalue = -151.02469009

    Simultaneous Expansion Method (Block Davidson Method)
    Using 1 initial trial vectors

     Iter   Root       Total Energy       Delta E      C RMS

   @CI  0:     0   -151.024690093457   -2.2050E+02   5.1348E-01  
   @CI  1:     0   -151.131165766413   -1.0648E-01   9.8285E-02  
   @CI  2:     0   -151.135344518681   -4.1788E-03   3.0388E-02  
   @CI  3:     0   -151.135782900143   -4.3838E-04   7.6985E-03  
   @CI  4:     0   -151.135807307945   -2.4408E-05   2.0830E-03  
   @CI  5:     0   -151.135809234955   -1.9270E-06   4.8013E-04  
   @CI  6:     0   -151.135809332909   -9.7954E-08   1.4059E-04  
   @CI  7:     0   -151.135809341619   -8.7104E-09   4.5558E-05  
   @CI  8:     0   -151.135809342601   -9.8163E-10   1.4875E-05  
   @CI  9:     0   -151.135809342690   -8.9102E-11   4.1548E-06  
   @CI 10:     0   -151.135809342698   -8.2991E-12   1.4009E-06  
   @CI 11:     0   -151.135809342699   -8.2423E-13   4.0783E-07 c

   ==> Energetics <==

    SCF energy =         -150.944884417257299
    Total CI energy =    -151.135809342699275

   ==> CISD root 0 information <==

    CISD Root 0 energy =  -151.135809342699275

   The 20 most important determinants:

    *   1    0.950835  (    0,    0)  1AX 2AX 3AX 4AX 5AX 6AX 7AX 8AX 9AX 10AX 11AX 12AX 
    *   2   -0.152992  (    2,    2)  1AX 2AX 3AX 4AX 5AX 6AX 7AX 8AX 9AX 10AX 12AX 13AX 
    *   3   -0.050830  (    2,    5)  1AX 2AX 3AX 4AX 5AX 6AX 7AX 8AA 9AX 10AX 11AB 12AX 13AX 
    *   4   -0.050830  (    5,    2)  1AX 2AX 3AX 4AX 5AX 6AX 7AX 8AB 9AX 10AX 11AA 12AX 13AX 
    *   5   -0.048500  (   41,   41)  1AX 2AX 3AX 4AX 5AX 6AX 7AX 9AX 10AX 11AX 12AX 16AX 
    *   6   -0.030974  (   28,   28)  1AX 2AX 3AX 4AX 5AX 6AX 7AX 8AX 10AX 11AX 12AX 15AX 
    *   7   -0.028556  (   19,   19)  1AX 2AX 3AX 4AX 5AX 7AX 8AX 9AX 10AX 11AX 12AX 14AX 
    *   8    0.027435  (    2,   75)  1AX 2AX 3AX 4AX 5AX 6AX 7AX 8AX 9AX 10AA 11AB 12AX 13AA 19AB 
    *   9    0.027435  (   75,    2)  1AX 2AX 3AX 4AX 5AX 6AX 7AX 8AX 9AX 10AB 11AA 12AX 13AB 19AA 
    *  10   -0.025009  (    2,   81)  1AX 2AX 3AX 4AA 5AX 6AX 7AX 8AX 9AX 10AX 11AB 12AX 13AA 19AB 
    *  11   -0.025009  (   81,    2)  1AX 2AX 3AX 4AB 5AX 6AX 7AX 8AX 9AX 10AX 11AA 12AX 13AB 19AA 
    *  12   -0.024137  (    5,    5)  1AX 2AX 3AX 4AX 5AX 6AX 7AX 9AX 10AX 11AX 12AX 13AX 
    *  13   -0.023016  (   13,   13)  1AX 2AX 3AX 4AX 5AX 6AX 7AX 8AX 9AX 10AX 11AX 14AX 
    *  14    0.022577  (    0, 1086)  1AX 2AX 3AX 4AX 5AX 6AX 7AX 8AX 9AX 10AA 11AA 12AX 13AB 19AB 
    *  15    0.022577  ( 1086,    0)  1AX 2AX 3AX 4AX 5AX 6AX 7AX 8AX 9AX 10AB 11AB 12AX 13AA 19AA 
    *  16   -0.022337  (   53,   53)  1AX 2AX 3AX 4AX 5AX 6AX 7AX 9AX 10AX 11AX 12AX 17AX 
    *  17    0.021718  (   38,   41)  1AX 2AX 3AX 4AX 5AX 6AX 7AX 8AA 9AX 10AX 11AB 12AX 16AX 
    *  18    0.021718  (   41,   38)  1AX 2AX 3AX 4AX 5AX 6AX 7AX 8AB 9AX 10AX 11AA 12AX 16AX 
    *  19   -0.021668  (   61,   61)  1AX 2AX 3AX 4AX 5AX 6AX 7AX 8AX 9AX 10AX 11AX 18AX 
    *  20    0.020531  (    2,   76)  1AX 2AX 3AX 4AX 5AX 6AX 7AX 8AX 9AA 10AX 11AB 12AX 13AA 19AB 

		 "A good bug is a dead bug" 

			 - Starship Troopers

		 "I didn't write FORTRAN.  That's the problem."

			 - Edward Valeev

*** tstart() called on trurls-machine
*** at Thu Mar  5 14:56:03 2020

   => Loading Basis Set <=

    Name: STO-3G
    Role: ORBITAL
    Keyword: BASIS
    atoms 1-2 entry C          line    61 file /Users/teague/anaconda3/envs/gen_env/share/psi4/basis/sto-3g.gbs 
    atoms 3   entry O          line    81 file /Users/teague/anaconda3/envs/gen_env/share/psi4/basis/sto-3g.gbs 
    atoms 4-7 entry H          line    19 file /Users/teague/anaconda3/envs/gen_env/share/psi4/basis/sto-3g.gbs 


         ---------------------------------------------------------
                                   SCF
               by Justin Turney, Rob Parrish, Andy Simmonett
                          and Daniel G. A. Smith
                              RHF Reference
                        1 Threads,   7629 MiB Core
         ---------------------------------------------------------

  ==> Geometry <==

    Molecular point group: c1
    Full point group: C1

    Geometry (in Angstrom), charge = 0, multiplicity = 1:

       Center              X                  Y                   Z               Mass       
    ------------   -----------------  -----------------  -----------------  -----------------
         C           -1.132799199959    -0.538539483820    -0.225255731718    12.000000000000
         C            0.289300800041    -0.263739483820     0.196244268282    12.000000000000
         O            0.862700800041     0.790660516180     0.039844268282    15.994914619570
         H           -1.729299199959    -0.829939483820     0.649344268282     1.007825032230
         H           -1.568899199959     0.344760516180    -0.697255731718     1.007825032230
         H           -1.157599199959    -1.387939483820    -0.920555731718     1.007825032230
         H            0.807500800041    -1.122639483820     0.681544268282     1.007825032230

  Running in c1 symmetry.

  Rotational constants: A =      1.89684  B =      0.33608  C =      0.30146 [cm^-1]
  Rotational constants: A =  56865.75285  B =  10075.49373  C =   9037.63282 [MHz]
  Nuclear repulsion =   69.477358531954025

  Charge       = 0
  Multiplicity = 1
  Electrons    = 24
  Nalpha       = 12
  Nbeta        = 12

  ==> Algorithm <==

  SCF Algorithm Type is PK.
  DIIS enabled.
  MOM disabled.
  Fractional occupation disabled.
  Guess Type is SAD.
  Energy threshold   = 1.00e-06
  Density threshold  = 1.00e-06
  Integral threshold = 0.00e+00

  ==> Primary Basis <==

  Basis Set: STO-3G
    Blend: STO-3G
    Number of shells: 13
    Number of basis function: 19
    Number of Cartesian functions: 19
    Spherical Harmonics?: true
    Max angular momentum: 1

  ==> Pre-Iterations <==

   -------------------------------------------------------
    Irrep   Nso     Nmo     Nalpha   Nbeta   Ndocc  Nsocc
   -------------------------------------------------------
     A         19      19       0       0       0       0
   -------------------------------------------------------
    Total      19      19      12      12      12       0
   -------------------------------------------------------

  ==> Integral Setup <==

  Using in-core PK algorithm.
   Calculation information:
      Number of atoms:                   7
      Number of AO shells:              13
      Number of primitives:             39
      Number of atomic orbitals:        19
      Number of basis functions:        19

      Integral cutoff                 1.00e-12
      Number of threads:                 1

  Performing in-core PK
  Using 36290 doubles for integral storage.
  We computed 4093 shell quartets total.
  Whereas there are 4186 unique shell quartets.

  ==> DiskJK: Disk-Based J/K Matrices <==

    J tasked:                  Yes
    K tasked:                  Yes
    wK tasked:                  No
    Memory [MiB]:             5722
    Schwarz Cutoff:          1E-12

    OpenMP threads:              1

  Minimum eigenvalue in the overlap matrix is 2.1674361668E-01.
  Using Symmetric Orthogonalization.

  SCF Guess: Superposition of Atomic Densities via on-the-fly atomic UHF.

  ==> Iterations <==

                        Total Energy        Delta E     RMS |[F,P]|

   @RHF iter SAD:  -148.66746046600304   -1.48667e+02   0.00000e+00 
   @RHF iter   1:  -150.81411143183394   -2.14665e+00   2.23528e-02 DIIS
   @RHF iter   2:  -150.89175599866837   -7.76446e-02   1.69548e-02 DIIS
   @RHF iter   3:  -150.94362848427667   -5.18725e-02   1.54400e-03 DIIS
   @RHF iter   4:  -150.94477356521128   -1.14508e-03   4.47894e-04 DIIS
   @RHF iter   5:  -150.94487331559964   -9.97504e-05   1.54731e-04 DIIS
   @RHF iter   6:  -150.94488406490319   -1.07493e-05   2.99316e-05 DIIS
   @RHF iter   7:  -150.94488441081515   -3.45912e-07   4.15926e-06 DIIS
   @RHF iter   8:  -150.94488441725721   -6.44206e-09   3.86915e-07 DIIS
  Energy and wave function converged.


  ==> Post-Iterations <==

    Orbital Energies [Eh]
    ---------------------

    Doubly Occupied:                                                      

       1A    -20.289998     2A    -11.122984     3A    -11.056198  
       4A     -1.332505     5A     -0.962902     6A     -0.741634  
       7A     -0.611154     8A     -0.558475     9A     -0.545518  
      10A     -0.500571    11A     -0.415465    12A     -0.336435  

    Virtual:                                                              

      13A      0.293669    14A      0.621250    15A      0.666555  
      16A      0.695064    17A      0.718365    18A      0.766508  
      19A      0.982993  

    Final Occupation by Irrep:
              A 
    DOCC [    12 ]

  @RHF Final Energy:  -150.94488441725721

   => Energetics <=

    Nuclear Repulsion Energy =             69.4773585319540246
    One-Electron Energy =                -343.8968042004251515
    Two-Electron Energy =                 123.4745612512138848
    Total Energy =                       -150.9448844172572137

Computation Completed


Properties will be evaluated at   0.000000,   0.000000,   0.000000 [a0]

Properties computed using the SCF density matrix

  Nuclear Dipole Moment: [e a0]
     X:    -3.4160      Y:    -2.8046      Z:    -0.2688

  Electronic Dipole Moment: [e a0]
     X:     3.0059      Y:     2.2310      Z:     0.3187

  Dipole Moment: [e a0]
     X:    -0.4101      Y:    -0.5736      Z:     0.0499     Total:     0.7069

  Dipole Moment: [D]
     X:    -1.0424      Y:    -1.4580      Z:     0.1268     Total:     1.7968


*** tstop() called on trurls-machine at Thu Mar  5 14:56:03 2020
Module time:
	user time   =       0.30 seconds =       0.00 minutes
	system time =       0.02 seconds =       0.00 minutes
	total time  =          0 seconds =       0.00 minutes
Total time:
	user time   =       3.12 seconds =       0.05 minutes
	system time =       0.17 seconds =       0.00 minutes
	total time  =          3 seconds =       0.05 minutes
 MINTS: Wrapper to libmints.
   by Justin Turney

   Calculation information:
      Number of threads:                 1
      Number of atoms:                   7
      Number of AO shells:              13
      Number of SO shells:              13
      Number of primitives:             39
      Number of atomic orbitals:        19
      Number of basis functions:        19

      Number of irreps:                  1
      Integral cutoff                 0.00e+00
      Number of functions per irrep: [  19 ]

 OEINTS: Overlap, kinetic, potential, dipole, and quadrupole integrals
         stored in file 35.

      Computing two-electron integrals...done
      Computed 17983 non-zero two-electron integrals.
        Stored in file 33.


         ---------------------------------------------------------
                          Configuration Interaction
                            (a 'D E T C I' module)

                 C. David Sherrill, Daniel G. A. Smith, and
                              Matt L. Leininger
         ---------------------------------------------------------


   ==> Parameters <==

    EX LEVEL       =       24      H0 BLOCKSIZE  =     1000
    VAL EX LEVEL   =        0      H0 GUESS SIZE =     1000
    H0COUPLINGSIZE =        0      H0 COUPLING   =       NO
    MAXITER        =       24      NUM PRINT     =       20
    NUM ROOTS      =        1      ICORE         =        1
    PRINT LVL      =        1      FCI           =      YES
    R CONV         = 1.00e-06      MIXED         =      YES
    E CONV         = 1.00e-06      MIXED4        =      YES
    R4S            =       NO      REPL OTF      =       NO
    DIAG METHOD    =      SEM      FOLLOW ROOT   =        0
    PRECONDITIONER = DAVIDSON      UPDATE        = DAVIDSON
    S              =   0.0000      Ms0           =      YES
    GUESS VECTOR   =  H0BLOCK      OPENTYPE      =     NONE
    COLLAPSE SIZE  =        1      HD AVG        = EVANGELISTI
    MAX NUM VECS   =       25      REF SYM       =     AUTO
    IOPEN        =       NO

    EX ALLOW       =  1  1  1  1  1  1  1  1  1  1  1  1  1  1  1  1  1  1  1  1  1  1  1  1 
    STATE AVERAGE  =  0(1.00) 

   ==> CI Orbital and Space information <==

   ------------------------------------
               Space    Total     A
   ------------------------------------
                 Nso       19    19
                 Nmo       19    19
               Ndocc       12    12
               Nsocc        0     0
   ------------------------------------
              CI Spaces
   ------------------------------------
        Dropped DOCC        0     0
              Active       19    19
        Dropped UOCC        0     0
   ------------------------------------

   ==> Setting up CI strings <==

    There are 50388 alpha and 50388 beta strings
    The CI space requires 2538950544 (2.54E+09) determinants and 1 blocks

   ==> Transforming CI integrals <==

	Presorting SO-basis two-electron integrals.
	Sorting File: SO Ints (nn|nn) nbuckets = 1
	Transforming the one-electron integrals and constructing Fock matrices
	Starting first half-transformation.
	Sorting half-transformed integrals.
	First half integral transformation complete.
	Starting second half-transformation.
	Two-electron integral transformation complete.

   ==> Starting CI iterations <==

