
    -----------------------------------------------------------------------
          Psi4: An Open-Source Ab Initio Electronic Structure Package
                               Psi4 1.3.2 release

                         Git: Rev {HEAD} ecbda83 


    R. M. Parrish, L. A. Burns, D. G. A. Smith, A. C. Simmonett,
    A. E. DePrince III, E. G. Hohenstein, U. Bozkaya, A. Yu. Sokolov,
    R. Di Remigio, R. M. Richard, J. F. Gonthier, A. M. James,
    H. R. McAlexander, A. Kumar, M. Saitow, X. Wang, B. P. Pritchard,
    P. Verma, H. F. Schaefer III, K. Patkowski, R. A. King, E. F. Valeev,
    F. A. Evangelista, J. M. Turney, T. D. Crawford, and C. D. Sherrill,
    J. Chem. Theory Comput. 13(7) pp 3185--3197 (2017).
    (doi: 10.1021/acs.jctc.7b00174)


                         Additional Contributions by
    P. Kraus, H. Kruse, M. H. Lechner, M. C. Schieber, R. A. Shaw,
    A. Alenaizan, R. Galvelis, Z. L. Glick, S. Lehtola, and J. P. Misiewicz

    -----------------------------------------------------------------------


    Psi4 started on: Wednesday, 04 March 2020 05:55PM

    Process ID: 5891
    Host:       trurls-machine
    PSIDATADIR: /Users/teague/anaconda3/envs/gen_env/share/psi4
    Memory:     500.0 MiB
    Threads:    1
    
  ==> Input File <==

--------------------------------------------------------------------------
"""This is a template for psi4 input format."""
import numpy
import sys

from openfermion.config import *
from openfermion.hamiltonians import MolecularData
from openfermion.ops import general_basis_change

from numpy import array

sys.path.append('/Users/teague/.local/lib/python3.7/site-packages/openfermionpsi4')
from _psi4_conversion_functions import *


# Set memory that job can use in megabytes.
memory 8000 mb

# Initialize molecular data.
_description = 'NIST'
if _description == 'None':
    _description = None
molecule = MolecularData([('C', (0.5977, 0.9316, 0.0938)), ('H', (0.0142, 0.0155, 0.1475)), ('H', (0.0337, 1.8613, 0.0747)), ('C', (1.9279, 0.9161, 0.0536)), ('H', (2.4919, -0.0136, 0.0726)), ('H', (2.5114, 1.8322, -0.0002))],
                         'sto-3g',
                         1,
                         0,
                         _description,
                          filename='molecule_data/Ethene_sto-3g_singlet_NIST')

# Set molecular geometry and symmetry.
molecule mol {
C 0.5977 0.9316 0.0938
H 0.0142 0.0155 0.1475
H 0.0337 1.8613 0.0747
C 1.9279 0.9161 0.0536
H 2.4919 -0.0136 0.0726
H 2.5114 1.8322 -0.0002
symmetry c1
}
mol.set_multiplicity(1)
mol.set_molecular_charge(0)

# Set reference and guess.
if molecule.multiplicity == 1:
    set reference rhf
    set guess sad
else:
    set reference rohf
    set guess gwh

# Set global parameters of calculation.
set globals {
    basis sto-3g
    freeze_core false
    fail_on_maxiter True
    df_scf_guess false
    opdm true
    tpdm true
    soscf false
    scf_type pk
    maxiter 1e6
    num_amps_print 1e6
    r_convergence 1e-6
    d_convergence 1e-6
    e_convergence 1e-6
    ints_tolerance EQUALITY_TOLERANCE
    damping_percentage 0
}

# Run self-consistent field (SCF) calculation.
if True:
    try:
        hf_energy, hf_wavefunction = energy('scf', return_wfn=True)
        if False:
            print('Hartree-Fock energy for {} ({} electrons) is {}.'.format(
                molecule.name, molecule.n_electrons, hf_energy))
    except:
        if False:
            print('WARNING: SCF calculation failed.')
        else:
            raise
    finally:
        # Get orbitals and Fock matrix.
        molecule.hf_energy = hf_energy
        molecule.nuclear_repulsion = mol.nuclear_repulsion_energy()
        molecule.canonical_orbitals = numpy.asarray(hf_wavefunction.Ca())
        molecule.overlap_integrals = numpy.asarray(hf_wavefunction.S())
        molecule.n_orbitals = molecule.canonical_orbitals.shape[0]
        molecule.n_qubits = 2 * molecule.n_orbitals
        molecule.orbital_energies = numpy.asarray(hf_wavefunction.epsilon_a())
        molecule.fock_matrix = numpy.asarray(hf_wavefunction.Fa())

        # Get integrals using MintsHelper.
        mints = MintsHelper(hf_wavefunction.basisset())
        molecule.one_body_integrals = general_basis_change(
            numpy.asarray(mints.ao_kinetic()), molecule.canonical_orbitals, (1, 0))
        molecule.one_body_integrals += general_basis_change(
            numpy.asarray(mints.ao_potential()), molecule.canonical_orbitals, (1, 0))
        two_body_integrals = numpy.asarray(mints.ao_eri())
        two_body_integrals.reshape((molecule.n_orbitals, molecule.n_orbitals,
                                    molecule.n_orbitals, molecule.n_orbitals))
        two_body_integrals = numpy.einsum('psqr', two_body_integrals)
        two_body_integrals = general_basis_change(
            two_body_integrals, molecule.canonical_orbitals, (1, 1, 0, 0))
        molecule.two_body_integrals = two_body_integrals
        molecule.save()


# Perform MP2 energy calculation if there are at least two electrons.
if True:
    try:
        assert molecule.n_electrons > 1
        mp2_energy = energy('mp2')
        if False:
            print('MP2 energy for {} ({} electrons) is {}.'.format(
                molecule.name, molecule.n_electrons, mp2_energy))
    except:
        if False:
            print('WARNING: MP2 calculation failed.')
        else:
            raise
    else:
        molecule.mp2_energy = mp2_energy
        molecule.save()


# Perform configuration interaction singles and doubles (CISD) calculation.
if True:
    set qc_module detci
    try:
        cisd_energy, cisd_wavefunction = energy('cisd', return_wfn=True)
        if False:
            print('CISD energy for {} ({} electrons) is {}.'.format(
                molecule.name, molecule.n_electrons, cisd_energy))
    except:
        if False:
            print('WARNING: CISD calculation failed.')
        else:
            raise
    else:
        # For the functions below, "a" and "b" refer to "up and "down" spins.
        molecule.cisd_energy = cisd_energy

        # Get 1-RDM from CISD calculation.
        cisd_one_rdm_a = numpy.array(cisd_wavefunction.get_opdm(
            0, 0, 'A', True)).reshape(molecule.n_orbitals, molecule.n_orbitals)
        cisd_one_rdm_b = numpy.array(cisd_wavefunction.get_opdm(
            0, 0, 'B', True)).reshape(molecule.n_orbitals, molecule.n_orbitals)

        # Get 2-RDM from CISD calculation.
        cisd_two_rdm_aa = numpy.array(cisd_wavefunction.get_tpdm(
            'AA', False)).reshape(molecule.n_orbitals, molecule.n_orbitals,
                                  molecule.n_orbitals, molecule.n_orbitals)
        cisd_two_rdm_ab = numpy.array(cisd_wavefunction.get_tpdm(
            'AB', False)).reshape(molecule.n_orbitals, molecule.n_orbitals,
                                  molecule.n_orbitals, molecule.n_orbitals)
        cisd_two_rdm_bb = numpy.array(cisd_wavefunction.get_tpdm(
            'BB', False)).reshape(molecule.n_orbitals, molecule.n_orbitals,
                                  molecule.n_orbitals, molecule.n_orbitals)

        # Get overall RDMs.
        cisd_one_rdm, cisd_two_rdm = unpack_spatial_rdm(
            cisd_one_rdm_a, cisd_one_rdm_b, cisd_two_rdm_aa,
            cisd_two_rdm_ab, cisd_two_rdm_bb)

        # Store 1-RDM in molecule file, 2-RDM separately in other file.
        molecule.cisd_one_rdm = cisd_one_rdm
        molecule.cisd_two_rdm = cisd_two_rdm
        molecule.save()


# Perform exact diagonalization.
if True:
    set qc_module detci
    try:
        fci_energy, fci_wavefunction = energy('fci', return_wfn=True)
        if False:
            print('FCI energy for {} ({} electrons) is {}.'.format(
                molecule.name, molecule.n_electrons, fci_energy))
    except:
        if False:
            print('WARNING: FCI calculation failed.')
        else:
            raise
    finally:
        # For the functions below, "a" and "b" refer to "up and "down" spins.
        molecule.fci_energy = fci_energy

        # Get 1-RDM from FCI calculation.
        fci_one_rdm_a = numpy.array(fci_wavefunction.get_opdm(
            0, 0, 'A', True)).reshape(molecule.n_orbitals, molecule.n_orbitals)
        fci_one_rdm_b = numpy.array(fci_wavefunction.get_opdm(
            0, 0, 'B', True)).reshape(molecule.n_orbitals, molecule.n_orbitals)

        # Get 2-RDM from FCI calculation.
        fci_two_rdm_aa = numpy.array(fci_wavefunction.get_tpdm(
            'AA', False)).reshape(molecule.n_orbitals, molecule.n_orbitals,
                                  molecule.n_orbitals, molecule.n_orbitals)
        fci_two_rdm_ab = numpy.array(fci_wavefunction.get_tpdm(
            'AB', False)).reshape(molecule.n_orbitals, molecule.n_orbitals,
                                  molecule.n_orbitals, molecule.n_orbitals)
        fci_two_rdm_bb = numpy.array(fci_wavefunction.get_tpdm(
            'BB', False)).reshape(molecule.n_orbitals, molecule.n_orbitals,
                                  molecule.n_orbitals, molecule.n_orbitals)

        # Get overall RDMs.
        fci_one_rdm, fci_two_rdm = unpack_spatial_rdm(
            fci_one_rdm_a, fci_one_rdm_b,
            fci_two_rdm_aa, fci_two_rdm_ab, fci_two_rdm_bb)

        # Store 1-RDM in molecule file, 2-RDM separately in other file.
        molecule.fci_one_rdm = fci_one_rdm
        molecule.fci_two_rdm = fci_two_rdm
        molecule.save()


# Perform coupled cluster singles and doubles (CCSD) calculation.
if True:
    set qc_module ccenergy
    try:
        ccsd_energy = energy('ccsd')
        if False:
            print('CCSD energy for {} ({} electrons) is {}.'.format(
                molecule.name, molecule.n_electrons, ccsd_energy))
    except:
        if False:
            print('WARNING: CCSD calculation failed.')
        else:
            raise
    else:
        molecule.ccsd_energy = ccsd_energy

        # Merge CC amplitudes into molecule by parsing
        psi_filename = outfile_name()
        single_cc_amplitudes, double_cc_amplitudes = (
            parse_psi4_ccsd_amplitudes(
                2 * molecule.n_orbitals,
                molecule.get_n_alpha_electrons(),
                molecule.get_n_beta_electrons(),
                psi_filename))

        molecule.ccsd_single_amps = single_cc_amplitudes
        molecule.ccsd_double_amps = double_cc_amplitudes
        molecule.save()
--------------------------------------------------------------------------

  Memory set to   7.451 GiB by Python driver.

*** tstart() called on trurls-machine
*** at Wed Mar  4 17:55:16 2020

   => Loading Basis Set <=

    Name: STO-3G
    Role: ORBITAL
    Keyword: BASIS
    atoms 1, 4     entry C          line    61 file /Users/teague/anaconda3/envs/gen_env/share/psi4/basis/sto-3g.gbs 
    atoms 2-3, 5-6 entry H          line    19 file /Users/teague/anaconda3/envs/gen_env/share/psi4/basis/sto-3g.gbs 


         ---------------------------------------------------------
                                   SCF
               by Justin Turney, Rob Parrish, Andy Simmonett
                          and Daniel G. A. Smith
                              RHF Reference
                        1 Threads,   7629 MiB Core
         ---------------------------------------------------------

  ==> Geometry <==

    Molecular point group: c1
    Full point group: C1

    Geometry (in Angstrom), charge = 0, multiplicity = 1:

       Center              X                  Y                   Z               Mass       
    ------------   -----------------  -----------------  -----------------  -----------------
         C           -0.665100000000     0.007750000000     0.020107190712    12.000000000000
         H           -1.248600000000    -0.908350000000     0.073807190712     1.007825032230
         H           -1.229100000000     0.937450000000     0.001007190712     1.007825032230
         C            0.665100000000    -0.007750000000    -0.020092809288    12.000000000000
         H            1.229100000000    -0.937450000000    -0.001092809288     1.007825032230
         H            1.248600000000     0.908350000000    -0.073892809288     1.007825032230

  Running in c1 symmetry.

  Rotational constants: A =      4.90138  B =      1.00216  C =      0.83204 [cm^-1]
  Rotational constants: A = 146939.75871  B =  30044.04155  C =  24943.88873 [MHz]
  Nuclear repulsion =   33.333240188468700

  Charge       = 0
  Multiplicity = 1
  Electrons    = 16
  Nalpha       = 8
  Nbeta        = 8

  ==> Algorithm <==

  SCF Algorithm Type is PK.
  DIIS enabled.
  MOM disabled.
  Fractional occupation disabled.
  Guess Type is SAD.
  Energy threshold   = 1.00e-06
  Density threshold  = 1.00e-06
  Integral threshold = 0.00e+00

  ==> Primary Basis <==

  Basis Set: STO-3G
    Blend: STO-3G
    Number of shells: 10
    Number of basis function: 14
    Number of Cartesian functions: 14
    Spherical Harmonics?: true
    Max angular momentum: 1

  ==> Pre-Iterations <==

   -------------------------------------------------------
    Irrep   Nso     Nmo     Nalpha   Nbeta   Ndocc  Nsocc
   -------------------------------------------------------
     A         14      14       0       0       0       0
   -------------------------------------------------------
    Total      14      14       8       8       8       0
   -------------------------------------------------------

  ==> Integral Setup <==

  Using in-core PK algorithm.
   Calculation information:
      Number of atoms:                   6
      Number of AO shells:              10
      Number of primitives:             30
      Number of atomic orbitals:        14
      Number of basis functions:        14

      Integral cutoff                 1.00e-12
      Number of threads:                 1

  Performing in-core PK
  Using 11130 doubles for integral storage.
  We computed 1540 shell quartets total.
  Whereas there are 1540 unique shell quartets.

  ==> DiskJK: Disk-Based J/K Matrices <==

    J tasked:                  Yes
    K tasked:                  Yes
    wK tasked:                  No
    Memory [MiB]:             5722
    Schwarz Cutoff:          1E-12

    OpenMP threads:              1

  Minimum eigenvalue in the overlap matrix is 1.8983962374E-01.
  Using Symmetric Orthogonalization.

  SCF Guess: Superposition of Atomic Densities via on-the-fly atomic UHF.

  ==> Iterations <==

                        Total Energy        Delta E     RMS |[F,P]|

   @RHF iter SAD:   -75.25415619527313   -7.52542e+01   0.00000e+00 
   @RHF iter   1:   -77.07060274895615   -1.81645e+00   3.84348e-03 DIIS
   @RHF iter   2:   -77.07277385965227   -2.17111e-03   7.58547e-04 DIIS
   @RHF iter   3:   -77.07287761928886   -1.03760e-04   8.94878e-05 DIIS
   @RHF iter   4:   -77.07287897758988   -1.35830e-06   7.52793e-06 DIIS
   @RHF iter   5:   -77.07287898684818   -9.25830e-09   4.23570e-07 DIIS
  Energy and wave function converged.


  ==> Post-Iterations <==

    Orbital Energies [Eh]
    ---------------------

    Doubly Occupied:                                                      

       1A    -11.020575     2A    -11.019744     3A     -0.977971  
       4A     -0.744076     5A     -0.600094     6A     -0.532535  
       7A     -0.459592     8A     -0.326075  

    Virtual:                                                              

       9A      0.320117    10A      0.621989    11A      0.691244  
      12A      0.691609    13A      0.935761    14A      0.991673  

    Final Occupation by Irrep:
              A 
    DOCC [     8 ]

  @RHF Final Energy:   -77.07287898684818

   => Energetics <=

    Nuclear Repulsion Energy =             33.3332401884687002
    One-Electron Energy =                -169.4509140202663957
    Two-Electron Energy =                  59.0447948449495215
    Total Energy =                        -77.0728789868481812

Computation Completed


Properties will be evaluated at   0.000000,   0.000000,   0.000000 [a0]

Properties computed using the SCF density matrix

  Nuclear Dipole Moment: [e a0]
     X:     0.0000      Y:     0.0000      Z:    -0.0002

  Electronic Dipole Moment: [e a0]
     X:    -0.0000      Y:    -0.0000      Z:     0.0001

  Dipole Moment: [e a0]
     X:    -0.0000      Y:    -0.0000      Z:    -0.0000     Total:     0.0000

  Dipole Moment: [D]
     X:    -0.0000      Y:    -0.0000      Z:    -0.0001     Total:     0.0001


*** tstop() called on trurls-machine at Wed Mar  4 17:55:16 2020
Module time:
	user time   =       0.26 seconds =       0.00 minutes
	system time =       0.02 seconds =       0.00 minutes
	total time  =          0 seconds =       0.00 minutes
Total time:
	user time   =       0.26 seconds =       0.00 minutes
	system time =       0.02 seconds =       0.00 minutes
	total time  =          0 seconds =       0.00 minutes

*** tstart() called on trurls-machine
*** at Wed Mar  4 17:55:16 2020

   => Loading Basis Set <=

    Name: STO-3G
    Role: ORBITAL
    Keyword: BASIS
    atoms 1, 4     entry C          line    61 file /Users/teague/anaconda3/envs/gen_env/share/psi4/basis/sto-3g.gbs 
    atoms 2-3, 5-6 entry H          line    19 file /Users/teague/anaconda3/envs/gen_env/share/psi4/basis/sto-3g.gbs 


         ---------------------------------------------------------
                                   SCF
               by Justin Turney, Rob Parrish, Andy Simmonett
                          and Daniel G. A. Smith
                              RHF Reference
                        1 Threads,   7629 MiB Core
         ---------------------------------------------------------

  ==> Geometry <==

    Molecular point group: c1
    Full point group: C1

    Geometry (in Angstrom), charge = 0, multiplicity = 1:

       Center              X                  Y                   Z               Mass       
    ------------   -----------------  -----------------  -----------------  -----------------
         C           -0.665100000000     0.007750000000     0.020107190712    12.000000000000
         H           -1.248600000000    -0.908350000000     0.073807190712     1.007825032230
         H           -1.229100000000     0.937450000000     0.001007190712     1.007825032230
         C            0.665100000000    -0.007750000000    -0.020092809288    12.000000000000
         H            1.229100000000    -0.937450000000    -0.001092809288     1.007825032230
         H            1.248600000000     0.908350000000    -0.073892809288     1.007825032230

  Running in c1 symmetry.

  Rotational constants: A =      4.90138  B =      1.00216  C =      0.83204 [cm^-1]
  Rotational constants: A = 146939.75871  B =  30044.04155  C =  24943.88873 [MHz]
  Nuclear repulsion =   33.333240188468700

  Charge       = 0
  Multiplicity = 1
  Electrons    = 16
  Nalpha       = 8
  Nbeta        = 8

  ==> Algorithm <==

  SCF Algorithm Type is PK.
  DIIS enabled.
  MOM disabled.
  Fractional occupation disabled.
  Guess Type is SAD.
  Energy threshold   = 1.00e-06
  Density threshold  = 1.00e-06
  Integral threshold = 0.00e+00

  ==> Primary Basis <==

  Basis Set: STO-3G
    Blend: STO-3G
    Number of shells: 10
    Number of basis function: 14
    Number of Cartesian functions: 14
    Spherical Harmonics?: true
    Max angular momentum: 1

  ==> Pre-Iterations <==

   -------------------------------------------------------
    Irrep   Nso     Nmo     Nalpha   Nbeta   Ndocc  Nsocc
   -------------------------------------------------------
     A         14      14       0       0       0       0
   -------------------------------------------------------
    Total      14      14       8       8       8       0
   -------------------------------------------------------

  ==> Integral Setup <==

  Using in-core PK algorithm.
   Calculation information:
      Number of atoms:                   6
      Number of AO shells:              10
      Number of primitives:             30
      Number of atomic orbitals:        14
      Number of basis functions:        14

      Integral cutoff                 1.00e-12
      Number of threads:                 1

  Performing in-core PK
  Using 11130 doubles for integral storage.
  We computed 1540 shell quartets total.
  Whereas there are 1540 unique shell quartets.

  ==> DiskJK: Disk-Based J/K Matrices <==

    J tasked:                  Yes
    K tasked:                  Yes
    wK tasked:                  No
    Memory [MiB]:             5722
    Schwarz Cutoff:          1E-12

    OpenMP threads:              1

  Minimum eigenvalue in the overlap matrix is 1.8983962374E-01.
  Using Symmetric Orthogonalization.

  SCF Guess: Superposition of Atomic Densities via on-the-fly atomic UHF.

  ==> Iterations <==

                        Total Energy        Delta E     RMS |[F,P]|

   @RHF iter SAD:   -75.25415619527311   -7.52542e+01   0.00000e+00 
   @RHF iter   1:   -77.07060274895602   -1.81645e+00   3.84348e-03 DIIS
   @RHF iter   2:   -77.07277385965213   -2.17111e-03   7.58547e-04 DIIS
   @RHF iter   3:   -77.07287761928868   -1.03760e-04   8.94878e-05 DIIS
   @RHF iter   4:   -77.07287897758974   -1.35830e-06   7.52793e-06 DIIS
   @RHF iter   5:   -77.07287898684805   -9.25832e-09   4.23570e-07 DIIS
  Energy and wave function converged.


  ==> Post-Iterations <==

    Orbital Energies [Eh]
    ---------------------

    Doubly Occupied:                                                      

       1A    -11.020575     2A    -11.019744     3A     -0.977971  
       4A     -0.744076     5A     -0.600094     6A     -0.532535  
       7A     -0.459592     8A     -0.326075  

    Virtual:                                                              

       9A      0.320117    10A      0.621989    11A      0.691244  
      12A      0.691609    13A      0.935761    14A      0.991673  

    Final Occupation by Irrep:
              A 
    DOCC [     8 ]

  @RHF Final Energy:   -77.07287898684805

   => Energetics <=

    Nuclear Repulsion Energy =             33.3332401884687002
    One-Electron Energy =                -169.4509140202660546
    Two-Electron Energy =                  59.0447948449493012
    Total Energy =                        -77.0728789868480533

Computation Completed


Properties will be evaluated at   0.000000,   0.000000,   0.000000 [a0]

Properties computed using the SCF density matrix

  Nuclear Dipole Moment: [e a0]
     X:     0.0000      Y:     0.0000      Z:    -0.0002

  Electronic Dipole Moment: [e a0]
     X:    -0.0000      Y:    -0.0000      Z:     0.0001

  Dipole Moment: [e a0]
     X:    -0.0000      Y:    -0.0000      Z:    -0.0000     Total:     0.0000

  Dipole Moment: [D]
     X:    -0.0000      Y:    -0.0000      Z:    -0.0001     Total:     0.0001


*** tstop() called on trurls-machine at Wed Mar  4 17:55:16 2020
Module time:
	user time   =       0.22 seconds =       0.00 minutes
	system time =       0.02 seconds =       0.00 minutes
	total time  =          0 seconds =       0.00 minutes
Total time:
	user time   =       0.72 seconds =       0.01 minutes
	system time =       0.07 seconds =       0.00 minutes
	total time  =          0 seconds =       0.00 minutes

*** tstart() called on trurls-machine
*** at Wed Mar  4 17:55:16 2020


  //>>>>>>>>>>>>>>>>>>>>>>>>>>>>>>>>>>>//
  //               DFMP2               //
  //<<<<<<<<<<<<<<<<<<<<<<<<<<<<<<<<<<<//

   => Loading Basis Set <=

    Name: (STO-3G AUX)
    Role: RIFIT
    Keyword: DF_BASIS_MP2
    atoms 1, 4     entry C          line   270 file /Users/teague/anaconda3/envs/gen_env/share/psi4/basis/def2-qzvpp-ri.gbs 
    atoms 2-3, 5-6 entry H          line    24 file /Users/teague/anaconda3/envs/gen_env/share/psi4/basis/def2-qzvpp-ri.gbs 

	 --------------------------------------------------------
	                          DF-MP2                         
	      2nd-Order Density-Fitted Moller-Plesset Theory     
	              RMP2 Wavefunction,   1 Threads             
	                                                         
	        Rob Parrish, Justin Turney, Andy Simmonett,      
	           Ed Hohenstein, and C. David Sherrill          
	 --------------------------------------------------------

   => Auxiliary Basis Set <=

  Basis Set: (STO-3G AUX)
    Blend: DEF2-QZVPP-RI
    Number of shells: 130
    Number of basis function: 506
    Number of Cartesian functions: 666
    Spherical Harmonics?: true
    Max angular momentum: 5

	 --------------------------------------------------------
	                 NBF =    14, NAUX =   506
	 --------------------------------------------------------
	   CLASS    FOCC     OCC    AOCC    AVIR     VIR    FVIR
	   PAIRS       0       8       8       6       6       0
	 --------------------------------------------------------

	-----------------------------------------------------------
	 ==================> DF-MP2 Energies <==================== 
	-----------------------------------------------------------
	 Reference Energy          =     -77.0728789868480533 [Eh]
	 Singles Energy            =      -0.0000000000000000 [Eh]
	 Same-Spin Energy          =      -0.0159255988838559 [Eh]
	 Opposite-Spin Energy      =      -0.1068635215994480 [Eh]
	 Correlation Energy        =      -0.1227891204833039 [Eh]
	 Total Energy              =     -77.1956681073313575 [Eh]
	-----------------------------------------------------------
	 ================> DF-SCS-MP2 Energies <================== 
	-----------------------------------------------------------
	 SCS Same-Spin Scale       =       0.3333333333333333 [-]
	 SCS Opposite-Spin Scale   =       1.2000000000000000 [-]
	 SCS Same-Spin Energy      =      -0.0053085329612853 [Eh]
	 SCS Opposite-Spin Energy  =      -0.1282362259193376 [Eh]
	 SCS Correlation Energy    =      -0.1335447588806229 [Eh]
	 SCS Total Energy          =     -77.2064237457286708 [Eh]
	-----------------------------------------------------------


*** tstop() called on trurls-machine at Wed Mar  4 17:55:17 2020
Module time:
	user time   =       0.20 seconds =       0.00 minutes
	system time =       0.00 seconds =       0.00 minutes
	total time  =          1 seconds =       0.02 minutes
Total time:
	user time   =       0.93 seconds =       0.02 minutes
	system time =       0.07 seconds =       0.00 minutes
	total time  =          1 seconds =       0.02 minutes

*** tstart() called on trurls-machine
*** at Wed Mar  4 17:55:17 2020

   => Loading Basis Set <=

    Name: STO-3G
    Role: ORBITAL
    Keyword: BASIS
    atoms 1, 4     entry C          line    61 file /Users/teague/anaconda3/envs/gen_env/share/psi4/basis/sto-3g.gbs 
    atoms 2-3, 5-6 entry H          line    19 file /Users/teague/anaconda3/envs/gen_env/share/psi4/basis/sto-3g.gbs 


         ---------------------------------------------------------
                                   SCF
               by Justin Turney, Rob Parrish, Andy Simmonett
                          and Daniel G. A. Smith
                              RHF Reference
                        1 Threads,   7629 MiB Core
         ---------------------------------------------------------

  ==> Geometry <==

    Molecular point group: c1
    Full point group: C1

    Geometry (in Angstrom), charge = 0, multiplicity = 1:

       Center              X                  Y                   Z               Mass       
    ------------   -----------------  -----------------  -----------------  -----------------
         C           -0.665100000000     0.007750000000     0.020107190712    12.000000000000
         H           -1.248600000000    -0.908350000000     0.073807190712     1.007825032230
         H           -1.229100000000     0.937450000000     0.001007190712     1.007825032230
         C            0.665100000000    -0.007750000000    -0.020092809288    12.000000000000
         H            1.229100000000    -0.937450000000    -0.001092809288     1.007825032230
         H            1.248600000000     0.908350000000    -0.073892809288     1.007825032230

  Running in c1 symmetry.

  Rotational constants: A =      4.90138  B =      1.00216  C =      0.83204 [cm^-1]
  Rotational constants: A = 146939.75871  B =  30044.04155  C =  24943.88873 [MHz]
  Nuclear repulsion =   33.333240188468700

  Charge       = 0
  Multiplicity = 1
  Electrons    = 16
  Nalpha       = 8
  Nbeta        = 8

  ==> Algorithm <==

  SCF Algorithm Type is PK.
  DIIS enabled.
  MOM disabled.
  Fractional occupation disabled.
  Guess Type is SAD.
  Energy threshold   = 1.00e-06
  Density threshold  = 1.00e-06
  Integral threshold = 0.00e+00

  ==> Primary Basis <==

  Basis Set: STO-3G
    Blend: STO-3G
    Number of shells: 10
    Number of basis function: 14
    Number of Cartesian functions: 14
    Spherical Harmonics?: true
    Max angular momentum: 1

  ==> Pre-Iterations <==

   -------------------------------------------------------
    Irrep   Nso     Nmo     Nalpha   Nbeta   Ndocc  Nsocc
   -------------------------------------------------------
     A         14      14       0       0       0       0
   -------------------------------------------------------
    Total      14      14       8       8       8       0
   -------------------------------------------------------

  ==> Integral Setup <==

  Using in-core PK algorithm.
   Calculation information:
      Number of atoms:                   6
      Number of AO shells:              10
      Number of primitives:             30
      Number of atomic orbitals:        14
      Number of basis functions:        14

      Integral cutoff                 1.00e-12
      Number of threads:                 1

  Performing in-core PK
  Using 11130 doubles for integral storage.
  We computed 1540 shell quartets total.
  Whereas there are 1540 unique shell quartets.

  ==> DiskJK: Disk-Based J/K Matrices <==

    J tasked:                  Yes
    K tasked:                  Yes
    wK tasked:                  No
    Memory [MiB]:             5722
    Schwarz Cutoff:          1E-12

    OpenMP threads:              1

  Minimum eigenvalue in the overlap matrix is 1.8983962374E-01.
  Using Symmetric Orthogonalization.

  SCF Guess: Superposition of Atomic Densities via on-the-fly atomic UHF.

  ==> Iterations <==

                        Total Energy        Delta E     RMS |[F,P]|

   @RHF iter SAD:   -75.25415619527311   -7.52542e+01   0.00000e+00 
   @RHF iter   1:   -77.07060274895602   -1.81645e+00   3.84348e-03 DIIS
   @RHF iter   2:   -77.07277385965213   -2.17111e-03   7.58547e-04 DIIS
   @RHF iter   3:   -77.07287761928868   -1.03760e-04   8.94878e-05 DIIS
   @RHF iter   4:   -77.07287897758981   -1.35830e-06   7.52793e-06 DIIS
   @RHF iter   5:   -77.07287898684802   -9.25822e-09   4.23570e-07 DIIS
  Energy and wave function converged.


  ==> Post-Iterations <==

    Orbital Energies [Eh]
    ---------------------

    Doubly Occupied:                                                      

       1A    -11.020575     2A    -11.019744     3A     -0.977971  
       4A     -0.744076     5A     -0.600094     6A     -0.532535  
       7A     -0.459592     8A     -0.326075  

    Virtual:                                                              

       9A      0.320117    10A      0.621989    11A      0.691244  
      12A      0.691609    13A      0.935761    14A      0.991673  

    Final Occupation by Irrep:
              A 
    DOCC [     8 ]

  @RHF Final Energy:   -77.07287898684802

   => Energetics <=

    Nuclear Repulsion Energy =             33.3332401884687002
    One-Electron Energy =                -169.4509140202660262
    Two-Electron Energy =                  59.0447948449493083
    Total Energy =                        -77.0728789868480249

Computation Completed


Properties will be evaluated at   0.000000,   0.000000,   0.000000 [a0]

Properties computed using the SCF density matrix

  Nuclear Dipole Moment: [e a0]
     X:     0.0000      Y:     0.0000      Z:    -0.0002

  Electronic Dipole Moment: [e a0]
     X:    -0.0000      Y:    -0.0000      Z:     0.0001

  Dipole Moment: [e a0]
     X:    -0.0000      Y:    -0.0000      Z:    -0.0000     Total:     0.0000

  Dipole Moment: [D]
     X:    -0.0000      Y:    -0.0000      Z:    -0.0001     Total:     0.0001


*** tstop() called on trurls-machine at Wed Mar  4 17:55:17 2020
Module time:
	user time   =       0.23 seconds =       0.00 minutes
	system time =       0.01 seconds =       0.00 minutes
	total time  =          0 seconds =       0.00 minutes
Total time:
	user time   =       1.31 seconds =       0.02 minutes
	system time =       0.11 seconds =       0.00 minutes
	total time  =          1 seconds =       0.02 minutes
 MINTS: Wrapper to libmints.
   by Justin Turney

   Calculation information:
      Number of threads:                 1
      Number of atoms:                   6
      Number of AO shells:              10
      Number of SO shells:              10
      Number of primitives:             30
      Number of atomic orbitals:        14
      Number of basis functions:        14

      Number of irreps:                  1
      Integral cutoff                 0.00e+00
      Number of functions per irrep: [  14 ]

 OEINTS: Overlap, kinetic, potential, dipole, and quadrupole integrals
         stored in file 35.

      Computing two-electron integrals...done
      Computed 5457 non-zero two-electron integrals.
        Stored in file 33.


         ---------------------------------------------------------
                          Configuration Interaction
                            (a 'D E T C I' module)

                 C. David Sherrill, Daniel G. A. Smith, and
                              Matt L. Leininger
         ---------------------------------------------------------


   ==> Parameters <==

    EX LEVEL       =        2      H0 BLOCKSIZE  =     1000
    VAL EX LEVEL   =        0      H0 GUESS SIZE =     1000
    H0COUPLINGSIZE =        0      H0 COUPLING   =       NO
    MAXITER        =       24      NUM PRINT     =       20
    NUM ROOTS      =        1      ICORE         =        1
    PRINT LVL      =        1      FCI           =       NO
    R CONV         = 1.00e-06      MIXED         =      YES
    E CONV         = 1.00e-06      MIXED4        =      YES
    R4S            =       NO      REPL OTF      =       NO
    DIAG METHOD    =      SEM      FOLLOW ROOT   =        0
    PRECONDITIONER = DAVIDSON      UPDATE        = DAVIDSON
    S              =   0.0000      Ms0           =      YES
    GUESS VECTOR   =  H0BLOCK      OPENTYPE      =     NONE
    COLLAPSE SIZE  =        1      HD AVG        = EVANGELISTI
    MAX NUM VECS   =       25      REF SYM       =     AUTO
    IOPEN        =       NO

    EX ALLOW       =  1  1 
    STATE AVERAGE  =  0(1.00) 

   ==> CI Orbital and Space information <==

    RAS1 LVL      =        7      A RAS3 MAX    =        2
    RAS1 MIN      =       14      B RAS3 MAX    =        2
    A RAS1 LVL    =        7      RAS4 LVL      =       14
    A RAS1 MIN    =        6      A RAS4 MAX    =        0
    A RAS1 MAX    =        8      B RAS4 MAX    =        0
    B RAS1 LVL    =        7      RAS4 MAX      =        0
    B RAS1 MIN    =        6      A RAS34 MAX   =        2
    B RAS1 MAX    =        8      B RAS34 MAX   =        2
    RAS3 LVL      =        8      RAS34 MAX     =        2
    RAS3 MAX      =        2
   ------------------------------------
               Space    Total     A
   ------------------------------------
                 Nso       14    14
                 Nmo       14    14
               Ndocc        8     8
               Nsocc        0     0
   ------------------------------------
              CI Spaces
   ------------------------------------
        Dropped DOCC        0     0
                RAS1        8     8
                RAS2        0     0
                RAS3        6     6
                RAS4        0     0
      Active (total)       14    14
        Dropped UOCC        0     0
   ------------------------------------

   ==> Setting up CI strings <==

    There are 469 alpha and 469 beta strings
    The CI space requires 3241 (3.24E+03) determinants and 6 blocks

   ==> Transforming CI integrals <==

	Presorting SO-basis two-electron integrals.
	Sorting File: SO Ints (nn|nn) nbuckets = 1
	Transforming the one-electron integrals and constructing Fock matrices
	Starting first half-transformation.
	Sorting half-transformed integrals.
	First half integral transformation complete.
	Starting second half-transformation.
	Two-electron integral transformation complete.

   ==> Starting CI iterations <==

    H0 Block Eigenvalue = -77.18701532

    Simultaneous Expansion Method (Block Davidson Method)
    Using 1 initial trial vectors

     Iter   Root       Total Energy       Delta E      C RMS

   @CI  0:     0    -77.187015323689   -1.1052E+02   3.1217E-01  
   @CI  1:     0    -77.221811359038   -3.4796E-02   5.6432E-02  
   @CI  2:     0    -77.222758203515   -9.4684E-04   1.4887E-02  
   @CI  3:     0    -77.222874928012   -1.1672E-04   5.6864E-03  
   @CI  4:     0    -77.222884980941   -1.0053E-05   1.3479E-03  
   @CI  5:     0    -77.222885812226   -8.3129E-07   3.7986E-04  
   @CI  6:     0    -77.222885871527   -5.9300E-08   1.0464E-04  
   @CI  7:     0    -77.222885874653   -3.1260E-09   2.8088E-05  
   @CI  8:     0    -77.222885874830   -1.7789E-10   3.6694E-06  
   @CI  9:     0    -77.222885874836   -5.3859E-12   1.0051E-06  
    Warning: Norm of correction (root 0) is < 1.0E-13
   @CI 10:     0    -77.222885874836   -2.7001E-13   2.6672E-07 c

   ==> Energetics <==

    SCF energy =          -77.072878986848025
    Total CI energy =     -77.222885874836123

   ==> CISD root 0 information <==

    CISD Root 0 energy =   -77.222885874836123

   The 20 most important determinants:

    *   1    0.954910  (    0,    0)  1AX 2AX 3AX 4AX 5AX 6AX 7AX 8AX 
    *   2   -0.189286  (    1,    1)  1AX 2AX 3AX 4AX 5AX 6AX 7AX 9AX 
    *   3   -0.043007  (    1,   43)  1AX 2AX 3AX 4AX 5AX 6AA 7AX 8AB 9AA 14AB 
    *   4   -0.043007  (   43,    1)  1AX 2AX 3AX 4AX 5AX 6AB 7AX 8AA 9AB 14AA 
    *   5   -0.035951  (   10,   10)  1AX 2AX 3AX 4AX 5AX 6AX 8AX 10AX 
    *   6   -0.034579  (   12,   12)  1AX 2AX 3AX 4AX 6AX 7AX 8AX 10AX 
    *   7   -0.032511  (   12,   34)  1AX 2AX 3AX 4AX 5AB 6AX 7AA 8AX 10AA 13AB 
    *   8   -0.032511  (   34,   12)  1AX 2AX 3AX 4AX 5AA 6AX 7AB 8AX 10AB 13AA 
    *   9   -0.031887  (   43,   43)  1AX 2AX 3AX 4AX 5AX 7AX 8AX 14AX 
    *  10    0.029412  (    1,   30)  1AX 2AX 3AA 4AX 5AX 6AX 7AX 8AB 9AA 12AB 
    *  11    0.029412  (   30,    1)  1AX 2AX 3AB 4AX 5AX 6AX 7AX 8AA 9AB 12AA 
    *  12   -0.028668  (    0,  330)  1AX 2AX 3AX 4AX 5AX 6AA 7AX 8AA 9AB 14AB 
    *  13   -0.028668  (  330,    0)  1AX 2AX 3AX 4AX 5AX 6AB 7AX 8AB 9AA 14AA 
    *  14   -0.028607  (   34,   34)  1AX 2AX 3AX 4AX 5AX 6AX 8AX 13AX 
    *  15   -0.028176  (    5,   17)  1AX 2AX 3AX 4AB 5AX 6AX 7AX 8AA 9AA 11AB 
    *  16   -0.028176  (   17,    5)  1AX 2AX 3AX 4AA 5AX 6AX 7AX 8AB 9AB 11AA 
    *  17    0.028059  (    6,   25)  1AX 2AX 3AB 4AX 5AX 6AX 7AX 8AA 9AA 12AB 
    *  18    0.028059  (   25,    6)  1AX 2AX 3AA 4AX 5AX 6AX 7AX 8AB 9AB 12AA 
    *  19   -0.027984  (    1,   21)  1AX 2AX 3AX 4AA 5AX 6AX 7AX 8AB 9AA 11AB 
    *  20   -0.027984  (   21,    1)  1AX 2AX 3AX 4AB 5AX 6AX 7AX 8AA 9AB 11AA 

		 "A good bug is a dead bug" 

			 - Starship Troopers

		 "I didn't write FORTRAN.  That's the problem."

			 - Edward Valeev

*** tstart() called on trurls-machine
*** at Wed Mar  4 17:55:18 2020

   => Loading Basis Set <=

    Name: STO-3G
    Role: ORBITAL
    Keyword: BASIS
    atoms 1, 4     entry C          line    61 file /Users/teague/anaconda3/envs/gen_env/share/psi4/basis/sto-3g.gbs 
    atoms 2-3, 5-6 entry H          line    19 file /Users/teague/anaconda3/envs/gen_env/share/psi4/basis/sto-3g.gbs 


         ---------------------------------------------------------
                                   SCF
               by Justin Turney, Rob Parrish, Andy Simmonett
                          and Daniel G. A. Smith
                              RHF Reference
                        1 Threads,   7629 MiB Core
         ---------------------------------------------------------

  ==> Geometry <==

    Molecular point group: c1
    Full point group: C1

    Geometry (in Angstrom), charge = 0, multiplicity = 1:

       Center              X                  Y                   Z               Mass       
    ------------   -----------------  -----------------  -----------------  -----------------
         C           -0.665100000000     0.007750000000     0.020107190712    12.000000000000
         H           -1.248600000000    -0.908350000000     0.073807190712     1.007825032230
         H           -1.229100000000     0.937450000000     0.001007190712     1.007825032230
         C            0.665100000000    -0.007750000000    -0.020092809288    12.000000000000
         H            1.229100000000    -0.937450000000    -0.001092809288     1.007825032230
         H            1.248600000000     0.908350000000    -0.073892809288     1.007825032230

  Running in c1 symmetry.

  Rotational constants: A =      4.90138  B =      1.00216  C =      0.83204 [cm^-1]
  Rotational constants: A = 146939.75871  B =  30044.04155  C =  24943.88873 [MHz]
  Nuclear repulsion =   33.333240188468700

  Charge       = 0
  Multiplicity = 1
  Electrons    = 16
  Nalpha       = 8
  Nbeta        = 8

  ==> Algorithm <==

  SCF Algorithm Type is PK.
  DIIS enabled.
  MOM disabled.
  Fractional occupation disabled.
  Guess Type is SAD.
  Energy threshold   = 1.00e-06
  Density threshold  = 1.00e-06
  Integral threshold = 0.00e+00

  ==> Primary Basis <==

  Basis Set: STO-3G
    Blend: STO-3G
    Number of shells: 10
    Number of basis function: 14
    Number of Cartesian functions: 14
    Spherical Harmonics?: true
    Max angular momentum: 1

  ==> Pre-Iterations <==

   -------------------------------------------------------
    Irrep   Nso     Nmo     Nalpha   Nbeta   Ndocc  Nsocc
   -------------------------------------------------------
     A         14      14       0       0       0       0
   -------------------------------------------------------
    Total      14      14       8       8       8       0
   -------------------------------------------------------

  ==> Integral Setup <==

  Using in-core PK algorithm.
   Calculation information:
      Number of atoms:                   6
      Number of AO shells:              10
      Number of primitives:             30
      Number of atomic orbitals:        14
      Number of basis functions:        14

      Integral cutoff                 1.00e-12
      Number of threads:                 1

  Performing in-core PK
  Using 11130 doubles for integral storage.
  We computed 1540 shell quartets total.
  Whereas there are 1540 unique shell quartets.

  ==> DiskJK: Disk-Based J/K Matrices <==

    J tasked:                  Yes
    K tasked:                  Yes
    wK tasked:                  No
    Memory [MiB]:             5722
    Schwarz Cutoff:          1E-12

    OpenMP threads:              1

  Minimum eigenvalue in the overlap matrix is 1.8983962374E-01.
  Using Symmetric Orthogonalization.

  SCF Guess: Superposition of Atomic Densities via on-the-fly atomic UHF.

  ==> Iterations <==

                        Total Energy        Delta E     RMS |[F,P]|

   @RHF iter SAD:   -75.25415619527313   -7.52542e+01   0.00000e+00 
   @RHF iter   1:   -77.07060274895602   -1.81645e+00   3.84348e-03 DIIS
   @RHF iter   2:   -77.07277385965213   -2.17111e-03   7.58547e-04 DIIS
   @RHF iter   3:   -77.07287761928870   -1.03760e-04   8.94878e-05 DIIS
   @RHF iter   4:   -77.07287897758980   -1.35830e-06   7.52793e-06 DIIS
   @RHF iter   5:   -77.07287898684805   -9.25826e-09   4.23570e-07 DIIS
  Energy and wave function converged.


  ==> Post-Iterations <==

    Orbital Energies [Eh]
    ---------------------

    Doubly Occupied:                                                      

       1A    -11.020575     2A    -11.019744     3A     -0.977971  
       4A     -0.744076     5A     -0.600094     6A     -0.532535  
       7A     -0.459592     8A     -0.326075  

    Virtual:                                                              

       9A      0.320117    10A      0.621989    11A      0.691244  
      12A      0.691609    13A      0.935761    14A      0.991673  

    Final Occupation by Irrep:
              A 
    DOCC [     8 ]

  @RHF Final Energy:   -77.07287898684805

   => Energetics <=

    Nuclear Repulsion Energy =             33.3332401884687002
    One-Electron Energy =                -169.4509140202661115
    Two-Electron Energy =                  59.0447948449493651
    Total Energy =                        -77.0728789868480533

Computation Completed


Properties will be evaluated at   0.000000,   0.000000,   0.000000 [a0]

Properties computed using the SCF density matrix

  Nuclear Dipole Moment: [e a0]
     X:     0.0000      Y:     0.0000      Z:    -0.0002

  Electronic Dipole Moment: [e a0]
     X:    -0.0000      Y:    -0.0000      Z:     0.0001

  Dipole Moment: [e a0]
     X:    -0.0000      Y:    -0.0000      Z:    -0.0000     Total:     0.0000

  Dipole Moment: [D]
     X:    -0.0000      Y:    -0.0000      Z:    -0.0001     Total:     0.0001


*** tstop() called on trurls-machine at Wed Mar  4 17:55:18 2020
Module time:
	user time   =       0.22 seconds =       0.00 minutes
	system time =       0.01 seconds =       0.00 minutes
	total time  =          0 seconds =       0.00 minutes
Total time:
	user time   =       2.28 seconds =       0.04 minutes
	system time =       0.18 seconds =       0.00 minutes
	total time  =          2 seconds =       0.03 minutes
 MINTS: Wrapper to libmints.
   by Justin Turney

   Calculation information:
      Number of threads:                 1
      Number of atoms:                   6
      Number of AO shells:              10
      Number of SO shells:              10
      Number of primitives:             30
      Number of atomic orbitals:        14
      Number of basis functions:        14

      Number of irreps:                  1
      Integral cutoff                 0.00e+00
      Number of functions per irrep: [  14 ]

 OEINTS: Overlap, kinetic, potential, dipole, and quadrupole integrals
         stored in file 35.

      Computing two-electron integrals...done
      Computed 5457 non-zero two-electron integrals.
        Stored in file 33.


         ---------------------------------------------------------
                          Configuration Interaction
                            (a 'D E T C I' module)

                 C. David Sherrill, Daniel G. A. Smith, and
                              Matt L. Leininger
         ---------------------------------------------------------


   ==> Parameters <==

    EX LEVEL       =       16      H0 BLOCKSIZE  =     1000
    VAL EX LEVEL   =        0      H0 GUESS SIZE =     1000
    H0COUPLINGSIZE =        0      H0 COUPLING   =       NO
    MAXITER        =       24      NUM PRINT     =       20
    NUM ROOTS      =        1      ICORE         =        1
    PRINT LVL      =        1      FCI           =      YES
    R CONV         = 1.00e-06      MIXED         =      YES
    E CONV         = 1.00e-06      MIXED4        =      YES
    R4S            =       NO      REPL OTF      =       NO
    DIAG METHOD    =      SEM      FOLLOW ROOT   =        0
    PRECONDITIONER = DAVIDSON      UPDATE        = DAVIDSON
    S              =   0.0000      Ms0           =      YES
    GUESS VECTOR   =  H0BLOCK      OPENTYPE      =     NONE
    COLLAPSE SIZE  =        1      HD AVG        = EVANGELISTI
    MAX NUM VECS   =       25      REF SYM       =     AUTO
    IOPEN        =       NO

    EX ALLOW       =  1  1  1  1  1  1  1  1  1  1  1  1  1  1  1  1 
    STATE AVERAGE  =  0(1.00) 

   ==> CI Orbital and Space information <==

   ------------------------------------
               Space    Total     A
   ------------------------------------
                 Nso       14    14
                 Nmo       14    14
               Ndocc        8     8
               Nsocc        0     0
   ------------------------------------
              CI Spaces
   ------------------------------------
        Dropped DOCC        0     0
              Active       14    14
        Dropped UOCC        0     0
   ------------------------------------

   ==> Setting up CI strings <==

    There are 3003 alpha and 3003 beta strings
    The CI space requires 9018009 (9.02E+06) determinants and 1 blocks

   ==> Transforming CI integrals <==

	Presorting SO-basis two-electron integrals.
	Sorting File: SO Ints (nn|nn) nbuckets = 1
	Transforming the one-electron integrals and constructing Fock matrices
	Starting first half-transformation.
	Sorting half-transformed integrals.
	First half integral transformation complete.
	Starting second half-transformation.
	Two-electron integral transformation complete.

   ==> Starting CI iterations <==

    H0 Block Eigenvalue = -77.18002356

    Simultaneous Expansion Method (Block Davidson Method)
    Using 1 initial trial vectors

     Iter   Root       Total Energy       Delta E      C RMS

   @CI  0:     0    -77.180023558600   -1.1051E+02   3.7153E-01  
   @CI  1:     0    -77.231254626407   -5.1231E-02   1.1708E-01  
   @CI  2:     0    -77.234706874775   -3.4522E-03   4.3860E-02  
   @CI  3:     0    -77.235168338124   -4.6146E-04   1.7780E-02  
   @CI  4:     0    -77.235243206040   -7.4868E-05   7.0983E-03  
   @CI  5:     0    -77.235255342067   -1.2136E-05   2.7429E-03  
   @CI  6:     0    -77.235256940757   -1.5987E-06   1.1533E-03  
   @CI  7:     0    -77.235257189672   -2.4891E-07   4.3661E-04  
   @CI  8:     0    -77.235257219436   -2.9764E-08   1.6791E-04  

Traceback (most recent call last):
  File "/Users/teague/anaconda3/envs/gen_env/bin/psi4", line 287, in <module>
    exec(content)
  File "<string>", line 173, in <module>

NameError: name 'fci_energy' is not defined


Printing out the relevant lines from the Psithon --> Python processed input file:
                print('WARNING: FCI calculation failed.')
            else:
                raise
        finally:
           
-->         molecule.fci_energy = fci_energy
           
            fci_one_rdm_a = numpy.array(fci_wavefunction.get_opdm(
                0, 0, 'A', True)).reshape(molecule.n_orbitals, molecule.n_orbitals)
            fci_one_rdm_b = numpy.array(fci_wavefunction.get_opdm(
                0, 0, 'B', True)).reshape(molecule.n_orbitals, molecule.n_orbitals)
