
    -----------------------------------------------------------------------
          Psi4: An Open-Source Ab Initio Electronic Structure Package
                               Psi4 1.3.2 release

                         Git: Rev {HEAD} ecbda83 


    R. M. Parrish, L. A. Burns, D. G. A. Smith, A. C. Simmonett,
    A. E. DePrince III, E. G. Hohenstein, U. Bozkaya, A. Yu. Sokolov,
    R. Di Remigio, R. M. Richard, J. F. Gonthier, A. M. James,
    H. R. McAlexander, A. Kumar, M. Saitow, X. Wang, B. P. Pritchard,
    P. Verma, H. F. Schaefer III, K. Patkowski, R. A. King, E. F. Valeev,
    F. A. Evangelista, J. M. Turney, T. D. Crawford, and C. D. Sherrill,
    J. Chem. Theory Comput. 13(7) pp 3185--3197 (2017).
    (doi: 10.1021/acs.jctc.7b00174)


                         Additional Contributions by
    P. Kraus, H. Kruse, M. H. Lechner, M. C. Schieber, R. A. Shaw,
    A. Alenaizan, R. Galvelis, Z. L. Glick, S. Lehtola, and J. P. Misiewicz

    -----------------------------------------------------------------------


    Psi4 started on: Wednesday, 04 March 2020 06:03PM

    Process ID: 17149
    Host:       trurls-machine
    PSIDATADIR: /Users/teague/anaconda3/envs/gen_env/share/psi4
    Memory:     500.0 MiB
    Threads:    1
    
  ==> Input File <==

--------------------------------------------------------------------------
"""This is a template for psi4 input format."""
import numpy
import sys

from openfermion.config import *
from openfermion.hamiltonians import MolecularData
from openfermion.ops import general_basis_change

from numpy import array

sys.path.append('/Users/teague/.local/lib/python3.7/site-packages/openfermionpsi4')
from _psi4_conversion_functions import *


# Set memory that job can use in megabytes.
memory 8000 mb

# Initialize molecular data.
_description = 'NIST'
if _description == 'None':
    _description = None
molecule = MolecularData([('C', (0.0, 0.0, -0.6025)), ('H', (0.0, 0.0, -1.6691)), ('C', (0.0, 0.0, 0.6025)), ('H', (0.0, 0.0, 1.6691))],
                         'sto-3g',
                         1,
                         0,
                         _description,
                          filename='molecule_data/Ethyne_sto-3g_singlet_NIST')

# Set molecular geometry and symmetry.
molecule mol {
C 0.0 0.0 -0.6025
H 0.0 0.0 -1.6691
C 0.0 0.0 0.6025
H 0.0 0.0 1.6691
symmetry c1
}
mol.set_multiplicity(1)
mol.set_molecular_charge(0)

# Set reference and guess.
if molecule.multiplicity == 1:
    set reference rhf
    set guess sad
else:
    set reference rohf
    set guess gwh

# Set global parameters of calculation.
set globals {
    basis sto-3g
    freeze_core false
    fail_on_maxiter True
    df_scf_guess false
    opdm true
    tpdm true
    soscf false
    scf_type pk
    maxiter 1e6
    num_amps_print 1e6
    r_convergence 1e-6
    d_convergence 1e-6
    e_convergence 1e-6
    ints_tolerance EQUALITY_TOLERANCE
    damping_percentage 0
}

# Run self-consistent field (SCF) calculation.
if True:
    try:
        hf_energy, hf_wavefunction = energy('scf', return_wfn=True)
        if False:
            print('Hartree-Fock energy for {} ({} electrons) is {}.'.format(
                molecule.name, molecule.n_electrons, hf_energy))
    except:
        if False:
            print('WARNING: SCF calculation failed.')
        else:
            raise
    finally:
        # Get orbitals and Fock matrix.
        molecule.hf_energy = hf_energy
        molecule.nuclear_repulsion = mol.nuclear_repulsion_energy()
        molecule.canonical_orbitals = numpy.asarray(hf_wavefunction.Ca())
        molecule.overlap_integrals = numpy.asarray(hf_wavefunction.S())
        molecule.n_orbitals = molecule.canonical_orbitals.shape[0]
        molecule.n_qubits = 2 * molecule.n_orbitals
        molecule.orbital_energies = numpy.asarray(hf_wavefunction.epsilon_a())
        molecule.fock_matrix = numpy.asarray(hf_wavefunction.Fa())

        # Get integrals using MintsHelper.
        mints = MintsHelper(hf_wavefunction.basisset())
        molecule.one_body_integrals = general_basis_change(
            numpy.asarray(mints.ao_kinetic()), molecule.canonical_orbitals, (1, 0))
        molecule.one_body_integrals += general_basis_change(
            numpy.asarray(mints.ao_potential()), molecule.canonical_orbitals, (1, 0))
        two_body_integrals = numpy.asarray(mints.ao_eri())
        two_body_integrals.reshape((molecule.n_orbitals, molecule.n_orbitals,
                                    molecule.n_orbitals, molecule.n_orbitals))
        two_body_integrals = numpy.einsum('psqr', two_body_integrals)
        two_body_integrals = general_basis_change(
            two_body_integrals, molecule.canonical_orbitals, (1, 1, 0, 0))
        molecule.two_body_integrals = two_body_integrals
        molecule.save()


# Perform MP2 energy calculation if there are at least two electrons.
if True:
    try:
        assert molecule.n_electrons > 1
        mp2_energy = energy('mp2')
        if False:
            print('MP2 energy for {} ({} electrons) is {}.'.format(
                molecule.name, molecule.n_electrons, mp2_energy))
    except:
        if False:
            print('WARNING: MP2 calculation failed.')
        else:
            raise
    else:
        molecule.mp2_energy = mp2_energy
        molecule.save()


# Perform configuration interaction singles and doubles (CISD) calculation.
if True:
    set qc_module detci
    try:
        cisd_energy, cisd_wavefunction = energy('cisd', return_wfn=True)
        if False:
            print('CISD energy for {} ({} electrons) is {}.'.format(
                molecule.name, molecule.n_electrons, cisd_energy))
    except:
        if False:
            print('WARNING: CISD calculation failed.')
        else:
            raise
    else:
        # For the functions below, "a" and "b" refer to "up and "down" spins.
        molecule.cisd_energy = cisd_energy

        # Get 1-RDM from CISD calculation.
        cisd_one_rdm_a = numpy.array(cisd_wavefunction.get_opdm(
            0, 0, 'A', True)).reshape(molecule.n_orbitals, molecule.n_orbitals)
        cisd_one_rdm_b = numpy.array(cisd_wavefunction.get_opdm(
            0, 0, 'B', True)).reshape(molecule.n_orbitals, molecule.n_orbitals)

        # Get 2-RDM from CISD calculation.
        cisd_two_rdm_aa = numpy.array(cisd_wavefunction.get_tpdm(
            'AA', False)).reshape(molecule.n_orbitals, molecule.n_orbitals,
                                  molecule.n_orbitals, molecule.n_orbitals)
        cisd_two_rdm_ab = numpy.array(cisd_wavefunction.get_tpdm(
            'AB', False)).reshape(molecule.n_orbitals, molecule.n_orbitals,
                                  molecule.n_orbitals, molecule.n_orbitals)
        cisd_two_rdm_bb = numpy.array(cisd_wavefunction.get_tpdm(
            'BB', False)).reshape(molecule.n_orbitals, molecule.n_orbitals,
                                  molecule.n_orbitals, molecule.n_orbitals)

        # Get overall RDMs.
        cisd_one_rdm, cisd_two_rdm = unpack_spatial_rdm(
            cisd_one_rdm_a, cisd_one_rdm_b, cisd_two_rdm_aa,
            cisd_two_rdm_ab, cisd_two_rdm_bb)

        # Store 1-RDM in molecule file, 2-RDM separately in other file.
        molecule.cisd_one_rdm = cisd_one_rdm
        molecule.cisd_two_rdm = cisd_two_rdm
        molecule.save()


# Perform exact diagonalization.
if True:
    set qc_module detci
    try:
        fci_energy, fci_wavefunction = energy('fci', return_wfn=True)
        if False:
            print('FCI energy for {} ({} electrons) is {}.'.format(
                molecule.name, molecule.n_electrons, fci_energy))
    except:
        if False:
            print('WARNING: FCI calculation failed.')
        else:
            raise
    finally:
        # For the functions below, "a" and "b" refer to "up and "down" spins.
        molecule.fci_energy = fci_energy

        # Get 1-RDM from FCI calculation.
        fci_one_rdm_a = numpy.array(fci_wavefunction.get_opdm(
            0, 0, 'A', True)).reshape(molecule.n_orbitals, molecule.n_orbitals)
        fci_one_rdm_b = numpy.array(fci_wavefunction.get_opdm(
            0, 0, 'B', True)).reshape(molecule.n_orbitals, molecule.n_orbitals)

        # Get 2-RDM from FCI calculation.
        fci_two_rdm_aa = numpy.array(fci_wavefunction.get_tpdm(
            'AA', False)).reshape(molecule.n_orbitals, molecule.n_orbitals,
                                  molecule.n_orbitals, molecule.n_orbitals)
        fci_two_rdm_ab = numpy.array(fci_wavefunction.get_tpdm(
            'AB', False)).reshape(molecule.n_orbitals, molecule.n_orbitals,
                                  molecule.n_orbitals, molecule.n_orbitals)
        fci_two_rdm_bb = numpy.array(fci_wavefunction.get_tpdm(
            'BB', False)).reshape(molecule.n_orbitals, molecule.n_orbitals,
                                  molecule.n_orbitals, molecule.n_orbitals)

        # Get overall RDMs.
        fci_one_rdm, fci_two_rdm = unpack_spatial_rdm(
            fci_one_rdm_a, fci_one_rdm_b,
            fci_two_rdm_aa, fci_two_rdm_ab, fci_two_rdm_bb)

        # Store 1-RDM in molecule file, 2-RDM separately in other file.
        molecule.fci_one_rdm = fci_one_rdm
        molecule.fci_two_rdm = fci_two_rdm
        molecule.save()


# Perform coupled cluster singles and doubles (CCSD) calculation.
if True:
    set qc_module ccenergy
    try:
        ccsd_energy = energy('ccsd')
        if False:
            print('CCSD energy for {} ({} electrons) is {}.'.format(
                molecule.name, molecule.n_electrons, ccsd_energy))
    except:
        if False:
            print('WARNING: CCSD calculation failed.')
        else:
            raise
    else:
        molecule.ccsd_energy = ccsd_energy

        # Merge CC amplitudes into molecule by parsing
        psi_filename = outfile_name()
        single_cc_amplitudes, double_cc_amplitudes = (
            parse_psi4_ccsd_amplitudes(
                2 * molecule.n_orbitals,
                molecule.get_n_alpha_electrons(),
                molecule.get_n_beta_electrons(),
                psi_filename))

        molecule.ccsd_single_amps = single_cc_amplitudes
        molecule.ccsd_double_amps = double_cc_amplitudes
        molecule.save()
--------------------------------------------------------------------------

  Memory set to   7.451 GiB by Python driver.

*** tstart() called on trurls-machine
*** at Wed Mar  4 18:03:15 2020

   => Loading Basis Set <=

    Name: STO-3G
    Role: ORBITAL
    Keyword: BASIS
    atoms 1, 3 entry C          line    61 file /Users/teague/anaconda3/envs/gen_env/share/psi4/basis/sto-3g.gbs 
    atoms 2, 4 entry H          line    19 file /Users/teague/anaconda3/envs/gen_env/share/psi4/basis/sto-3g.gbs 


         ---------------------------------------------------------
                                   SCF
               by Justin Turney, Rob Parrish, Andy Simmonett
                          and Daniel G. A. Smith
                              RHF Reference
                        1 Threads,   7629 MiB Core
         ---------------------------------------------------------

  ==> Geometry <==

    Molecular point group: c1
    Full point group: D_inf_h

    Geometry (in Angstrom), charge = 0, multiplicity = 1:

       Center              X                  Y                   Z               Mass       
    ------------   -----------------  -----------------  -----------------  -----------------
         C            0.000000000000     0.000000000000    -0.602500000000    12.000000000000
         H            0.000000000000     0.000000000000    -1.669100000000     1.007825032230
         C            0.000000000000     0.000000000000     0.602500000000    12.000000000000
         H            0.000000000000     0.000000000000     1.669100000000     1.007825032230

  Running in c1 symmetry.

  Rotational constants: A = ************  B =      1.17659  C =      1.17659 [cm^-1]
  Rotational constants: A = ************  B =  35273.25991  C =  35273.25991 [MHz]
  Nuclear repulsion =   24.717023292456140

  Charge       = 0
  Multiplicity = 1
  Electrons    = 14
  Nalpha       = 7
  Nbeta        = 7

  ==> Algorithm <==

  SCF Algorithm Type is PK.
  DIIS enabled.
  MOM disabled.
  Fractional occupation disabled.
  Guess Type is SAD.
  Energy threshold   = 1.00e-06
  Density threshold  = 1.00e-06
  Integral threshold = 0.00e+00

  ==> Primary Basis <==

  Basis Set: STO-3G
    Blend: STO-3G
    Number of shells: 8
    Number of basis function: 12
    Number of Cartesian functions: 12
    Spherical Harmonics?: true
    Max angular momentum: 1

  ==> Pre-Iterations <==

   -------------------------------------------------------
    Irrep   Nso     Nmo     Nalpha   Nbeta   Ndocc  Nsocc
   -------------------------------------------------------
     A         12      12       0       0       0       0
   -------------------------------------------------------
    Total      12      12       7       7       7       0
   -------------------------------------------------------

  ==> Integral Setup <==

  Using in-core PK algorithm.
   Calculation information:
      Number of atoms:                   4
      Number of AO shells:               8
      Number of primitives:             24
      Number of atomic orbitals:        12
      Number of basis functions:        12

      Integral cutoff                 1.00e-12
      Number of threads:                 1

  Performing in-core PK
  Using 6162 doubles for integral storage.
  We computed 666 shell quartets total.
  Whereas there are 666 unique shell quartets.

  ==> DiskJK: Disk-Based J/K Matrices <==

    J tasked:                  Yes
    K tasked:                  Yes
    wK tasked:                  No
    Memory [MiB]:             5722
    Schwarz Cutoff:          1E-12

    OpenMP threads:              1

  Minimum eigenvalue in the overlap matrix is 1.3652074105E-01.
  Using Symmetric Orthogonalization.

  SCF Guess: Superposition of Atomic Densities via on-the-fly atomic UHF.

  ==> Iterations <==

                        Total Energy        Delta E     RMS |[F,P]|

   @RHF iter SAD:   -74.36212328906238   -7.43621e+01   0.00000e+00 
   @RHF iter   1:   -75.85180602215732   -1.48968e+00   3.16333e-03 DIIS
   @RHF iter   2:   -75.85251986755216   -7.13845e-04   4.83249e-04 DIIS
   @RHF iter   3:   -75.85254294244479   -2.30749e-05   4.25399e-05 DIIS
   @RHF iter   4:   -75.85254309559444   -1.53150e-07   2.22825e-06 DIIS
   @RHF iter   5:   -75.85254309621345   -6.19011e-10   2.42335e-07 DIIS
  Energy and wave function converged.


  ==> Post-Iterations <==

    Orbital Energies [Eh]
    ---------------------

    Doubly Occupied:                                                      

       1A    -10.999609     2A    -10.996729     3A     -0.951770  
       4A     -0.705119     5A     -0.606250     6A     -0.347461  
       7A     -0.347461  

    Virtual:                                                              

       8A      0.395189     9A      0.395189    10A      0.550091  
      11A      0.726541    12A      1.465805  

    Final Occupation by Irrep:
              A 
    DOCC [     7 ]

  @RHF Final Energy:   -75.85254309621345

   => Energetics <=

    Nuclear Repulsion Energy =             24.7170232924561404
    One-Electron Energy =                -151.2303359329930004
    Two-Electron Energy =                  50.6607695443234149
    Total Energy =                        -75.8525430962134521

Computation Completed


Properties will be evaluated at   0.000000,   0.000000,   0.000000 [a0]

Properties computed using the SCF density matrix

  Nuclear Dipole Moment: [e a0]
     X:     0.0000      Y:     0.0000      Z:     0.0000

  Electronic Dipole Moment: [e a0]
     X:    -0.0000      Y:     0.0000      Z:    -0.0000

  Dipole Moment: [e a0]
     X:    -0.0000      Y:     0.0000      Z:    -0.0000     Total:     0.0000

  Dipole Moment: [D]
     X:    -0.0000      Y:     0.0000      Z:    -0.0000     Total:     0.0000


*** tstop() called on trurls-machine at Wed Mar  4 18:03:15 2020
Module time:
	user time   =       0.22 seconds =       0.00 minutes
	system time =       0.01 seconds =       0.00 minutes
	total time  =          0 seconds =       0.00 minutes
Total time:
	user time   =       0.22 seconds =       0.00 minutes
	system time =       0.01 seconds =       0.00 minutes
	total time  =          0 seconds =       0.00 minutes

*** tstart() called on trurls-machine
*** at Wed Mar  4 18:03:15 2020

   => Loading Basis Set <=

    Name: STO-3G
    Role: ORBITAL
    Keyword: BASIS
    atoms 1, 3 entry C          line    61 file /Users/teague/anaconda3/envs/gen_env/share/psi4/basis/sto-3g.gbs 
    atoms 2, 4 entry H          line    19 file /Users/teague/anaconda3/envs/gen_env/share/psi4/basis/sto-3g.gbs 


         ---------------------------------------------------------
                                   SCF
               by Justin Turney, Rob Parrish, Andy Simmonett
                          and Daniel G. A. Smith
                              RHF Reference
                        1 Threads,   7629 MiB Core
         ---------------------------------------------------------

  ==> Geometry <==

    Molecular point group: c1
    Full point group: D_inf_h

    Geometry (in Angstrom), charge = 0, multiplicity = 1:

       Center              X                  Y                   Z               Mass       
    ------------   -----------------  -----------------  -----------------  -----------------
         C            0.000000000000     0.000000000000    -0.602500000000    12.000000000000
         H            0.000000000000     0.000000000000    -1.669100000000     1.007825032230
         C            0.000000000000     0.000000000000     0.602500000000    12.000000000000
         H            0.000000000000     0.000000000000     1.669100000000     1.007825032230

  Running in c1 symmetry.

  Rotational constants: A = ************  B =      1.17659  C =      1.17659 [cm^-1]
  Rotational constants: A = ************  B =  35273.25991  C =  35273.25991 [MHz]
  Nuclear repulsion =   24.717023292456140

  Charge       = 0
  Multiplicity = 1
  Electrons    = 14
  Nalpha       = 7
  Nbeta        = 7

  ==> Algorithm <==

  SCF Algorithm Type is PK.
  DIIS enabled.
  MOM disabled.
  Fractional occupation disabled.
  Guess Type is SAD.
  Energy threshold   = 1.00e-06
  Density threshold  = 1.00e-06
  Integral threshold = 0.00e+00

  ==> Primary Basis <==

  Basis Set: STO-3G
    Blend: STO-3G
    Number of shells: 8
    Number of basis function: 12
    Number of Cartesian functions: 12
    Spherical Harmonics?: true
    Max angular momentum: 1

  ==> Pre-Iterations <==

   -------------------------------------------------------
    Irrep   Nso     Nmo     Nalpha   Nbeta   Ndocc  Nsocc
   -------------------------------------------------------
     A         12      12       0       0       0       0
   -------------------------------------------------------
    Total      12      12       7       7       7       0
   -------------------------------------------------------

  ==> Integral Setup <==

  Using in-core PK algorithm.
   Calculation information:
      Number of atoms:                   4
      Number of AO shells:               8
      Number of primitives:             24
      Number of atomic orbitals:        12
      Number of basis functions:        12

      Integral cutoff                 1.00e-12
      Number of threads:                 1

  Performing in-core PK
  Using 6162 doubles for integral storage.
  We computed 666 shell quartets total.
  Whereas there are 666 unique shell quartets.

  ==> DiskJK: Disk-Based J/K Matrices <==

    J tasked:                  Yes
    K tasked:                  Yes
    wK tasked:                  No
    Memory [MiB]:             5722
    Schwarz Cutoff:          1E-12

    OpenMP threads:              1

  Minimum eigenvalue in the overlap matrix is 1.3652074105E-01.
  Using Symmetric Orthogonalization.

  SCF Guess: Superposition of Atomic Densities via on-the-fly atomic UHF.

  ==> Iterations <==

                        Total Energy        Delta E     RMS |[F,P]|

   @RHF iter SAD:   -74.36212328906238   -7.43621e+01   0.00000e+00 
   @RHF iter   1:   -75.85180602215732   -1.48968e+00   3.16333e-03 DIIS
   @RHF iter   2:   -75.85251986755216   -7.13845e-04   4.83249e-04 DIIS
   @RHF iter   3:   -75.85254294244479   -2.30749e-05   4.25399e-05 DIIS
   @RHF iter   4:   -75.85254309559444   -1.53150e-07   2.22825e-06 DIIS
   @RHF iter   5:   -75.85254309621345   -6.19011e-10   2.42335e-07 DIIS
  Energy and wave function converged.


  ==> Post-Iterations <==

    Orbital Energies [Eh]
    ---------------------

    Doubly Occupied:                                                      

       1A    -10.999609     2A    -10.996729     3A     -0.951770  
       4A     -0.705119     5A     -0.606250     6A     -0.347461  
       7A     -0.347461  

    Virtual:                                                              

       8A      0.395189     9A      0.395189    10A      0.550091  
      11A      0.726541    12A      1.465805  

    Final Occupation by Irrep:
              A 
    DOCC [     7 ]

  @RHF Final Energy:   -75.85254309621345

   => Energetics <=

    Nuclear Repulsion Energy =             24.7170232924561404
    One-Electron Energy =                -151.2303359329930004
    Two-Electron Energy =                  50.6607695443234149
    Total Energy =                        -75.8525430962134521

Computation Completed


Properties will be evaluated at   0.000000,   0.000000,   0.000000 [a0]

Properties computed using the SCF density matrix

  Nuclear Dipole Moment: [e a0]
     X:     0.0000      Y:     0.0000      Z:     0.0000

  Electronic Dipole Moment: [e a0]
     X:    -0.0000      Y:     0.0000      Z:    -0.0000

  Dipole Moment: [e a0]
     X:    -0.0000      Y:     0.0000      Z:    -0.0000     Total:     0.0000

  Dipole Moment: [D]
     X:    -0.0000      Y:     0.0000      Z:    -0.0000     Total:     0.0000


*** tstop() called on trurls-machine at Wed Mar  4 18:03:15 2020
Module time:
	user time   =       0.20 seconds =       0.00 minutes
	system time =       0.01 seconds =       0.00 minutes
	total time  =          0 seconds =       0.00 minutes
Total time:
	user time   =       0.54 seconds =       0.01 minutes
	system time =       0.04 seconds =       0.00 minutes
	total time  =          0 seconds =       0.00 minutes

*** tstart() called on trurls-machine
*** at Wed Mar  4 18:03:15 2020


  //>>>>>>>>>>>>>>>>>>>>>>>>>>>>>>>>>>>//
  //               DFMP2               //
  //<<<<<<<<<<<<<<<<<<<<<<<<<<<<<<<<<<<//

   => Loading Basis Set <=

    Name: (STO-3G AUX)
    Role: RIFIT
    Keyword: DF_BASIS_MP2
    atoms 1, 3 entry C          line   270 file /Users/teague/anaconda3/envs/gen_env/share/psi4/basis/def2-qzvpp-ri.gbs 
    atoms 2, 4 entry H          line    24 file /Users/teague/anaconda3/envs/gen_env/share/psi4/basis/def2-qzvpp-ri.gbs 

	 --------------------------------------------------------
	                          DF-MP2                         
	      2nd-Order Density-Fitted Moller-Plesset Theory     
	              RMP2 Wavefunction,   1 Threads             
	                                                         
	        Rob Parrish, Justin Turney, Andy Simmonett,      
	           Ed Hohenstein, and C. David Sherrill          
	 --------------------------------------------------------

   => Auxiliary Basis Set <=

  Basis Set: (STO-3G AUX)
    Blend: DEF2-QZVPP-RI
    Number of shells: 98
    Number of basis function: 394
    Number of Cartesian functions: 524
    Spherical Harmonics?: true
    Max angular momentum: 5

	 --------------------------------------------------------
	                 NBF =    12, NAUX =   394
	 --------------------------------------------------------
	   CLASS    FOCC     OCC    AOCC    AVIR     VIR    FVIR
	   PAIRS       0       7       7       5       5       0
	 --------------------------------------------------------

	-----------------------------------------------------------
	 ==================> DF-MP2 Energies <==================== 
	-----------------------------------------------------------
	 Reference Energy          =     -75.8525430962134521 [Eh]
	 Singles Energy            =      -0.0000000000000000 [Eh]
	 Same-Spin Energy          =      -0.0316941453499989 [Eh]
	 Opposite-Spin Energy      =      -0.1197264391770748 [Eh]
	 Correlation Energy        =      -0.1514205845270737 [Eh]
	 Total Energy              =     -76.0039636807405259 [Eh]
	-----------------------------------------------------------
	 ================> DF-SCS-MP2 Energies <================== 
	-----------------------------------------------------------
	 SCS Same-Spin Scale       =       0.3333333333333333 [-]
	 SCS Opposite-Spin Scale   =       1.2000000000000000 [-]
	 SCS Same-Spin Energy      =      -0.0105647151166663 [Eh]
	 SCS Opposite-Spin Energy  =      -0.1436717270124898 [Eh]
	 SCS Correlation Energy    =      -0.1542364421291561 [Eh]
	 SCS Total Energy          =     -76.0067795383426130 [Eh]
	-----------------------------------------------------------


*** tstop() called on trurls-machine at Wed Mar  4 18:03:15 2020
Module time:
	user time   =       0.15 seconds =       0.00 minutes
	system time =       0.01 seconds =       0.00 minutes
	total time  =          0 seconds =       0.00 minutes
Total time:
	user time   =       0.69 seconds =       0.01 minutes
	system time =       0.05 seconds =       0.00 minutes
	total time  =          0 seconds =       0.00 minutes

*** tstart() called on trurls-machine
*** at Wed Mar  4 18:03:16 2020

   => Loading Basis Set <=

    Name: STO-3G
    Role: ORBITAL
    Keyword: BASIS
    atoms 1, 3 entry C          line    61 file /Users/teague/anaconda3/envs/gen_env/share/psi4/basis/sto-3g.gbs 
    atoms 2, 4 entry H          line    19 file /Users/teague/anaconda3/envs/gen_env/share/psi4/basis/sto-3g.gbs 


         ---------------------------------------------------------
                                   SCF
               by Justin Turney, Rob Parrish, Andy Simmonett
                          and Daniel G. A. Smith
                              RHF Reference
                        1 Threads,   7629 MiB Core
         ---------------------------------------------------------

  ==> Geometry <==

    Molecular point group: c1
    Full point group: D_inf_h

    Geometry (in Angstrom), charge = 0, multiplicity = 1:

       Center              X                  Y                   Z               Mass       
    ------------   -----------------  -----------------  -----------------  -----------------
         C            0.000000000000     0.000000000000    -0.602500000000    12.000000000000
         H            0.000000000000     0.000000000000    -1.669100000000     1.007825032230
         C            0.000000000000     0.000000000000     0.602500000000    12.000000000000
         H            0.000000000000     0.000000000000     1.669100000000     1.007825032230

  Running in c1 symmetry.

  Rotational constants: A = ************  B =      1.17659  C =      1.17659 [cm^-1]
  Rotational constants: A = ************  B =  35273.25991  C =  35273.25991 [MHz]
  Nuclear repulsion =   24.717023292456140

  Charge       = 0
  Multiplicity = 1
  Electrons    = 14
  Nalpha       = 7
  Nbeta        = 7

  ==> Algorithm <==

  SCF Algorithm Type is PK.
  DIIS enabled.
  MOM disabled.
  Fractional occupation disabled.
  Guess Type is SAD.
  Energy threshold   = 1.00e-06
  Density threshold  = 1.00e-06
  Integral threshold = 0.00e+00

  ==> Primary Basis <==

  Basis Set: STO-3G
    Blend: STO-3G
    Number of shells: 8
    Number of basis function: 12
    Number of Cartesian functions: 12
    Spherical Harmonics?: true
    Max angular momentum: 1

  ==> Pre-Iterations <==

   -------------------------------------------------------
    Irrep   Nso     Nmo     Nalpha   Nbeta   Ndocc  Nsocc
   -------------------------------------------------------
     A         12      12       0       0       0       0
   -------------------------------------------------------
    Total      12      12       7       7       7       0
   -------------------------------------------------------

  ==> Integral Setup <==

  Using in-core PK algorithm.
   Calculation information:
      Number of atoms:                   4
      Number of AO shells:               8
      Number of primitives:             24
      Number of atomic orbitals:        12
      Number of basis functions:        12

      Integral cutoff                 1.00e-12
      Number of threads:                 1

  Performing in-core PK
  Using 6162 doubles for integral storage.
  We computed 666 shell quartets total.
  Whereas there are 666 unique shell quartets.

  ==> DiskJK: Disk-Based J/K Matrices <==

    J tasked:                  Yes
    K tasked:                  Yes
    wK tasked:                  No
    Memory [MiB]:             5722
    Schwarz Cutoff:          1E-12

    OpenMP threads:              1

  Minimum eigenvalue in the overlap matrix is 1.3652074105E-01.
  Using Symmetric Orthogonalization.

  SCF Guess: Superposition of Atomic Densities via on-the-fly atomic UHF.

  ==> Iterations <==

                        Total Energy        Delta E     RMS |[F,P]|

   @RHF iter SAD:   -74.36212328906238   -7.43621e+01   0.00000e+00 
   @RHF iter   1:   -75.85180602215732   -1.48968e+00   3.16333e-03 DIIS
   @RHF iter   2:   -75.85251986755216   -7.13845e-04   4.83249e-04 DIIS
   @RHF iter   3:   -75.85254294244479   -2.30749e-05   4.25399e-05 DIIS
   @RHF iter   4:   -75.85254309559444   -1.53150e-07   2.22825e-06 DIIS
   @RHF iter   5:   -75.85254309621345   -6.19011e-10   2.42335e-07 DIIS
  Energy and wave function converged.


  ==> Post-Iterations <==

    Orbital Energies [Eh]
    ---------------------

    Doubly Occupied:                                                      

       1A    -10.999609     2A    -10.996729     3A     -0.951770  
       4A     -0.705119     5A     -0.606250     6A     -0.347461  
       7A     -0.347461  

    Virtual:                                                              

       8A      0.395189     9A      0.395189    10A      0.550091  
      11A      0.726541    12A      1.465805  

    Final Occupation by Irrep:
              A 
    DOCC [     7 ]

  @RHF Final Energy:   -75.85254309621345

   => Energetics <=

    Nuclear Repulsion Energy =             24.7170232924561404
    One-Electron Energy =                -151.2303359329930004
    Two-Electron Energy =                  50.6607695443234149
    Total Energy =                        -75.8525430962134521

Computation Completed


Properties will be evaluated at   0.000000,   0.000000,   0.000000 [a0]

Properties computed using the SCF density matrix

  Nuclear Dipole Moment: [e a0]
     X:     0.0000      Y:     0.0000      Z:     0.0000

  Electronic Dipole Moment: [e a0]
     X:    -0.0000      Y:     0.0000      Z:    -0.0000

  Dipole Moment: [e a0]
     X:    -0.0000      Y:     0.0000      Z:    -0.0000     Total:     0.0000

  Dipole Moment: [D]
     X:    -0.0000      Y:     0.0000      Z:    -0.0000     Total:     0.0000


*** tstop() called on trurls-machine at Wed Mar  4 18:03:16 2020
Module time:
	user time   =       0.21 seconds =       0.00 minutes
	system time =       0.01 seconds =       0.00 minutes
	total time  =          0 seconds =       0.00 minutes
Total time:
	user time   =       1.00 seconds =       0.02 minutes
	system time =       0.08 seconds =       0.00 minutes
	total time  =          1 seconds =       0.02 minutes
 MINTS: Wrapper to libmints.
   by Justin Turney

   Calculation information:
      Number of threads:                 1
      Number of atoms:                   4
      Number of AO shells:               8
      Number of SO shells:               8
      Number of primitives:             24
      Number of atomic orbitals:        12
      Number of basis functions:        12

      Number of irreps:                  1
      Integral cutoff                 0.00e+00
      Number of functions per irrep: [  12 ]

 OEINTS: Overlap, kinetic, potential, dipole, and quadrupole integrals
         stored in file 35.

      Computing two-electron integrals...done
      Computed 1153 non-zero two-electron integrals.
        Stored in file 33.


         ---------------------------------------------------------
                          Configuration Interaction
                            (a 'D E T C I' module)

                 C. David Sherrill, Daniel G. A. Smith, and
                              Matt L. Leininger
         ---------------------------------------------------------


   ==> Parameters <==

    EX LEVEL       =        2      H0 BLOCKSIZE  =     1000
    VAL EX LEVEL   =        0      H0 GUESS SIZE =     1000
    H0COUPLINGSIZE =        0      H0 COUPLING   =       NO
    MAXITER        =       24      NUM PRINT     =       20
    NUM ROOTS      =        1      ICORE         =        1
    PRINT LVL      =        1      FCI           =       NO
    R CONV         = 1.00e-06      MIXED         =      YES
    E CONV         = 1.00e-06      MIXED4        =      YES
    R4S            =       NO      REPL OTF      =       NO
    DIAG METHOD    =      SEM      FOLLOW ROOT   =        0
    PRECONDITIONER = DAVIDSON      UPDATE        = DAVIDSON
    S              =   0.0000      Ms0           =      YES
    GUESS VECTOR   =  H0BLOCK      OPENTYPE      =     NONE
    COLLAPSE SIZE  =        1      HD AVG        = EVANGELISTI
    MAX NUM VECS   =       25      REF SYM       =     AUTO
    IOPEN        =       NO

    EX ALLOW       =  1  1 
    STATE AVERAGE  =  0(1.00) 

   ==> CI Orbital and Space information <==

    RAS1 LVL      =        6      A RAS3 MAX    =        2
    RAS1 MIN      =       12      B RAS3 MAX    =        2
    A RAS1 LVL    =        6      RAS4 LVL      =       12
    A RAS1 MIN    =        5      A RAS4 MAX    =        0
    A RAS1 MAX    =        7      B RAS4 MAX    =        0
    B RAS1 LVL    =        6      RAS4 MAX      =        0
    B RAS1 MIN    =        5      A RAS34 MAX   =        2
    B RAS1 MAX    =        7      B RAS34 MAX   =        2
    RAS3 LVL      =        7      RAS34 MAX     =        2
    RAS3 MAX      =        2
   ------------------------------------
               Space    Total     A
   ------------------------------------
                 Nso       12    12
                 Nmo       12    12
               Ndocc        7     7
               Nsocc        0     0
   ------------------------------------
              CI Spaces
   ------------------------------------
        Dropped DOCC        0     0
                RAS1        7     7
                RAS2        0     0
                RAS3        5     5
                RAS4        0     0
      Active (total)       12    12
        Dropped UOCC        0     0
   ------------------------------------

   ==> Setting up CI strings <==

    There are 246 alpha and 246 beta strings
    The CI space requires 1716 (1.72E+03) determinants and 6 blocks

   ==> Transforming CI integrals <==

	Presorting SO-basis two-electron integrals.
	Sorting File: SO Ints (nn|nn) nbuckets = 1
	Transforming the one-electron integrals and constructing Fock matrices
	Starting first half-transformation.
	Sorting half-transformed integrals.
	First half integral transformation complete.
	Starting second half-transformation.
	Two-electron integral transformation complete.

   ==> Starting CI iterations <==

    H0 Block Eigenvalue = -76.00942297

    Simultaneous Expansion Method (Block Davidson Method)
    Using 1 initial trial vectors

     Iter   Root       Total Energy       Delta E      C RMS

   @CI  0:     0    -76.009422972460   -1.0073E+02   9.2632E-02  
   @CI  1:     0    -76.009913624252   -4.9065E-04   6.9844E-03  
   @CI  2:     0    -76.009916349678   -2.7254E-06   4.3178E-04  
   @CI  3:     0    -76.009916394695   -4.5017E-08   1.2786E-04  
   @CI  4:     0    -76.009916397739   -3.0439E-09   4.1204E-05  
   @CI  5:     0    -76.009916398036   -2.9677E-10   1.0182E-05  
   @CI  6:     0    -76.009916398050   -1.4467E-11   2.3400E-06  
   @CI  7:     0    -76.009916398051   -1.0658E-12   7.0721E-07 c

   ==> Energetics <==

    SCF energy =          -75.852543096213452
    Total CI energy =     -76.009916398051274

   ==> CISD root 0 information <==

    CISD Root 0 energy =   -76.009916398051274

   The 20 most important determinants:

    *   1   -0.955402  (    0,    0)  1AX 2AX 3AX 4AX 5AX 6AX 7AX 
    *   2    0.102444  (    2,    2)  1AX 2AX 3AX 4AX 5AX 7AX 8AX 
    *   3    0.102444  (    8,    8)  1AX 2AX 3AX 4AX 5AX 6AX 9AX 
    *   4   -0.049628  (    2,    9)  1AX 2AX 3AX 4AX 5AX 7AX 8AA 9AB 
    *   5   -0.049628  (    9,    2)  1AX 2AX 3AX 4AX 5AX 7AX 8AB 9AA 
    *   6    0.049628  (    1,    2)  1AX 2AX 3AX 4AX 5AX 6AA 7AB 8AX 
    *   7    0.049628  (    2,    1)  1AX 2AX 3AX 4AX 5AX 6AB 7AA 8AX 
    *   8   -0.049628  (    8,    9)  1AX 2AX 3AX 4AX 5AX 6AA 7AB 9AX 
    *   9   -0.049628  (    9,    8)  1AX 2AX 3AX 4AX 5AX 6AB 7AA 9AX 
    *  10    0.049628  (    1,    8)  1AX 2AX 3AX 4AX 5AX 6AX 8AA 9AB 
    *  11    0.049628  (    8,    1)  1AX 2AX 3AX 4AX 5AX 6AX 8AB 9AA 
    *  12    0.049609  (    2,    8)  1AX 2AX 3AX 4AX 5AX 6AB 7AA 8AA 9AB 
    *  13    0.049609  (    8,    2)  1AX 2AX 3AX 4AX 5AX 6AA 7AB 8AB 9AA 
    *  14    0.041779  (   24,   24)  1AX 2AX 3AX 4AX 6AX 7AX 11AX 
    *  15    0.041665  (    9,    9)  1AX 2AX 3AX 4AX 5AX 7AX 9AX 
    *  16    0.041665  (    1,    1)  1AX 2AX 3AX 4AX 5AX 6AX 8AX 
    *  17   -0.038440  (    0,   36)  1AX 2AX 3AX 4AX 5AX 6AA 7AA 8AB 9AB 
    *  18   -0.038440  (   36,    0)  1AX 2AX 3AX 4AX 5AX 6AB 7AB 8AA 9AA 
    *  19    0.037955  (   18,   24)  1AX 2AX 3AX 4AB 5AA 6AX 7AX 10AA 11AB 
    *  20    0.037955  (   24,   18)  1AX 2AX 3AX 4AA 5AB 6AX 7AX 10AB 11AA 

		 "A good bug is a dead bug" 

			 - Starship Troopers

		 "I didn't write FORTRAN.  That's the problem."

			 - Edward Valeev

*** tstart() called on trurls-machine
*** at Wed Mar  4 18:03:16 2020

   => Loading Basis Set <=

    Name: STO-3G
    Role: ORBITAL
    Keyword: BASIS
    atoms 1, 3 entry C          line    61 file /Users/teague/anaconda3/envs/gen_env/share/psi4/basis/sto-3g.gbs 
    atoms 2, 4 entry H          line    19 file /Users/teague/anaconda3/envs/gen_env/share/psi4/basis/sto-3g.gbs 


         ---------------------------------------------------------
                                   SCF
               by Justin Turney, Rob Parrish, Andy Simmonett
                          and Daniel G. A. Smith
                              RHF Reference
                        1 Threads,   7629 MiB Core
         ---------------------------------------------------------

  ==> Geometry <==

    Molecular point group: c1
    Full point group: D_inf_h

    Geometry (in Angstrom), charge = 0, multiplicity = 1:

       Center              X                  Y                   Z               Mass       
    ------------   -----------------  -----------------  -----------------  -----------------
         C            0.000000000000     0.000000000000    -0.602500000000    12.000000000000
         H            0.000000000000     0.000000000000    -1.669100000000     1.007825032230
         C            0.000000000000     0.000000000000     0.602500000000    12.000000000000
         H            0.000000000000     0.000000000000     1.669100000000     1.007825032230

  Running in c1 symmetry.

  Rotational constants: A = ************  B =      1.17659  C =      1.17659 [cm^-1]
  Rotational constants: A = ************  B =  35273.25991  C =  35273.25991 [MHz]
  Nuclear repulsion =   24.717023292456140

  Charge       = 0
  Multiplicity = 1
  Electrons    = 14
  Nalpha       = 7
  Nbeta        = 7

  ==> Algorithm <==

  SCF Algorithm Type is PK.
  DIIS enabled.
  MOM disabled.
  Fractional occupation disabled.
  Guess Type is SAD.
  Energy threshold   = 1.00e-06
  Density threshold  = 1.00e-06
  Integral threshold = 0.00e+00

  ==> Primary Basis <==

  Basis Set: STO-3G
    Blend: STO-3G
    Number of shells: 8
    Number of basis function: 12
    Number of Cartesian functions: 12
    Spherical Harmonics?: true
    Max angular momentum: 1

  ==> Pre-Iterations <==

   -------------------------------------------------------
    Irrep   Nso     Nmo     Nalpha   Nbeta   Ndocc  Nsocc
   -------------------------------------------------------
     A         12      12       0       0       0       0
   -------------------------------------------------------
    Total      12      12       7       7       7       0
   -------------------------------------------------------

  ==> Integral Setup <==

  Using in-core PK algorithm.
   Calculation information:
      Number of atoms:                   4
      Number of AO shells:               8
      Number of primitives:             24
      Number of atomic orbitals:        12
      Number of basis functions:        12

      Integral cutoff                 1.00e-12
      Number of threads:                 1

  Performing in-core PK
  Using 6162 doubles for integral storage.
  We computed 666 shell quartets total.
  Whereas there are 666 unique shell quartets.

  ==> DiskJK: Disk-Based J/K Matrices <==

    J tasked:                  Yes
    K tasked:                  Yes
    wK tasked:                  No
    Memory [MiB]:             5722
    Schwarz Cutoff:          1E-12

    OpenMP threads:              1

  Minimum eigenvalue in the overlap matrix is 1.3652074105E-01.
  Using Symmetric Orthogonalization.

  SCF Guess: Superposition of Atomic Densities via on-the-fly atomic UHF.

  ==> Iterations <==

                        Total Energy        Delta E     RMS |[F,P]|

   @RHF iter SAD:   -74.36212328906238   -7.43621e+01   0.00000e+00 
   @RHF iter   1:   -75.85180602215732   -1.48968e+00   3.16333e-03 DIIS
   @RHF iter   2:   -75.85251986755216   -7.13845e-04   4.83249e-04 DIIS
   @RHF iter   3:   -75.85254294244479   -2.30749e-05   4.25399e-05 DIIS
   @RHF iter   4:   -75.85254309559444   -1.53150e-07   2.22825e-06 DIIS
   @RHF iter   5:   -75.85254309621345   -6.19011e-10   2.42335e-07 DIIS
  Energy and wave function converged.


  ==> Post-Iterations <==

    Orbital Energies [Eh]
    ---------------------

    Doubly Occupied:                                                      

       1A    -10.999609     2A    -10.996729     3A     -0.951770  
       4A     -0.705119     5A     -0.606250     6A     -0.347461  
       7A     -0.347461  

    Virtual:                                                              

       8A      0.395189     9A      0.395189    10A      0.550091  
      11A      0.726541    12A      1.465805  

    Final Occupation by Irrep:
              A 
    DOCC [     7 ]

  @RHF Final Energy:   -75.85254309621345

   => Energetics <=

    Nuclear Repulsion Energy =             24.7170232924561404
    One-Electron Energy =                -151.2303359329930004
    Two-Electron Energy =                  50.6607695443234149
    Total Energy =                        -75.8525430962134521

Computation Completed


Properties will be evaluated at   0.000000,   0.000000,   0.000000 [a0]

Properties computed using the SCF density matrix

  Nuclear Dipole Moment: [e a0]
     X:     0.0000      Y:     0.0000      Z:     0.0000

  Electronic Dipole Moment: [e a0]
     X:    -0.0000      Y:     0.0000      Z:    -0.0000

  Dipole Moment: [e a0]
     X:    -0.0000      Y:     0.0000      Z:    -0.0000     Total:     0.0000

  Dipole Moment: [D]
     X:    -0.0000      Y:     0.0000      Z:    -0.0000     Total:     0.0000


*** tstop() called on trurls-machine at Wed Mar  4 18:03:17 2020
Module time:
	user time   =       0.19 seconds =       0.00 minutes
	system time =       0.00 seconds =       0.00 minutes
	total time  =          1 seconds =       0.02 minutes
Total time:
	user time   =       1.71 seconds =       0.03 minutes
	system time =       0.13 seconds =       0.00 minutes
	total time  =          2 seconds =       0.03 minutes
 MINTS: Wrapper to libmints.
   by Justin Turney

   Calculation information:
      Number of threads:                 1
      Number of atoms:                   4
      Number of AO shells:               8
      Number of SO shells:               8
      Number of primitives:             24
      Number of atomic orbitals:        12
      Number of basis functions:        12

      Number of irreps:                  1
      Integral cutoff                 0.00e+00
      Number of functions per irrep: [  12 ]

 OEINTS: Overlap, kinetic, potential, dipole, and quadrupole integrals
         stored in file 35.

      Computing two-electron integrals...done
      Computed 1153 non-zero two-electron integrals.
        Stored in file 33.


         ---------------------------------------------------------
                          Configuration Interaction
                            (a 'D E T C I' module)

                 C. David Sherrill, Daniel G. A. Smith, and
                              Matt L. Leininger
         ---------------------------------------------------------


   ==> Parameters <==

    EX LEVEL       =       14      H0 BLOCKSIZE  =     1000
    VAL EX LEVEL   =        0      H0 GUESS SIZE =     1000
    H0COUPLINGSIZE =        0      H0 COUPLING   =       NO
    MAXITER        =       24      NUM PRINT     =       20
    NUM ROOTS      =        1      ICORE         =        1
    PRINT LVL      =        1      FCI           =      YES
    R CONV         = 1.00e-06      MIXED         =      YES
    E CONV         = 1.00e-06      MIXED4        =      YES
    R4S            =       NO      REPL OTF      =       NO
    DIAG METHOD    =      SEM      FOLLOW ROOT   =        0
    PRECONDITIONER = DAVIDSON      UPDATE        = DAVIDSON
    S              =   0.0000      Ms0           =      YES
    GUESS VECTOR   =  H0BLOCK      OPENTYPE      =     NONE
    COLLAPSE SIZE  =        1      HD AVG        = EVANGELISTI
    MAX NUM VECS   =       25      REF SYM       =     AUTO
    IOPEN        =       NO

    EX ALLOW       =  1  1  1  1  1  1  1  1  1  1  1  1  1  1 
    STATE AVERAGE  =  0(1.00) 

   ==> CI Orbital and Space information <==

   ------------------------------------
               Space    Total     A
   ------------------------------------
                 Nso       12    12
                 Nmo       12    12
               Ndocc        7     7
               Nsocc        0     0
   ------------------------------------
              CI Spaces
   ------------------------------------
        Dropped DOCC        0     0
              Active       12    12
        Dropped UOCC        0     0
   ------------------------------------

   ==> Setting up CI strings <==

    There are 792 alpha and 792 beta strings
    The CI space requires 627264 (6.27E+05) determinants and 1 blocks

   ==> Transforming CI integrals <==

	Presorting SO-basis two-electron integrals.
	Sorting File: SO Ints (nn|nn) nbuckets = 1
	Transforming the one-electron integrals and constructing Fock matrices
	Starting first half-transformation.
	Sorting half-transformed integrals.
	First half integral transformation complete.
	Starting second half-transformation.
	Two-electron integral transformation complete.

   ==> Starting CI iterations <==

    H0 Block Eigenvalue = -75.99256591

    Simultaneous Expansion Method (Block Davidson Method)
    Using 1 initial trial vectors

     Iter   Root       Total Energy       Delta E      C RMS

   @CI  0:     0    -75.992565913152   -1.0071E+02   3.1317E-01  
   @CI  1:     0    -76.022568067588   -3.0002E-02   9.2788E-02  
   @CI  2:     0    -76.024696107835   -2.1280E-03   4.4711E-02  
   @CI  3:     0    -76.025266451437   -5.7034E-04   1.9373E-02  
   @CI  4:     0    -76.025373423189   -1.0697E-04   8.3194E-03  
   @CI  5:     0    -76.025393737126   -2.0314E-05   3.4715E-03  
   @CI  6:     0    -76.025396274075   -2.5369E-06   1.5204E-03  
   @CI  7:     0    -76.025396779450   -5.0537E-07   6.3965E-04  
   @CI  8:     0    -76.025396851572   -7.2122E-08   2.2791E-04  
   @CI  9:     0    -76.025396862335   -1.0763E-08   9.0351E-05  
   @CI 10:     0    -76.025396863990   -1.6553E-09   2.7777E-05  
   @CI 11:     0    -76.025396864134   -1.4442E-10   8.5856E-06  
   @CI 12:     0    -76.025396864149   -1.4410E-11   2.5214E-06  
   @CI 13:     0    -76.025396864150   -1.3216E-12   8.3001E-07 c

   ==> Energetics <==

    SCF energy =          -75.852543096213452
    Total CI energy =     -76.025396864150053

   ==> FCI root 0 information <==

    FCI Root 0 energy =   -76.025396864150053

   The 20 most important determinants:

    *   1   -0.943186  (    0,    0)  1AX 2AX 3AX 4AX 5AX 6AX 7AX 
    *   2    0.113648  (    2,    2)  1AX 2AX 3AX 4AX 5AX 7AX 8AX 
    *   3    0.113648  (    8,    8)  1AX 2AX 3AX 4AX 5AX 6AX 9AX 
    *   4    0.055458  (    1,    2)  1AX 2AX 3AX 4AX 5AX 6AA 7AB 8AX 
    *   5    0.055458  (    2,    1)  1AX 2AX 3AX 4AX 5AX 6AB 7AA 8AX 
    *   6    0.055458  (    1,    8)  1AX 2AX 3AX 4AX 5AX 6AX 8AA 9AB 
    *   7    0.055458  (    8,    1)  1AX 2AX 3AX 4AX 5AX 6AX 8AB 9AA 
    *   8   -0.055458  (    8,    9)  1AX 2AX 3AX 4AX 5AX 6AA 7AB 9AX 
    *   9   -0.055458  (    9,    8)  1AX 2AX 3AX 4AX 5AX 6AB 7AA 9AX 
    *  10   -0.055458  (    2,    9)  1AX 2AX 3AX 4AX 5AX 7AX 8AA 9AB 
    *  11   -0.055458  (    9,    2)  1AX 2AX 3AX 4AX 5AX 7AX 8AB 9AA 
    *  12    0.054669  (    2,    8)  1AX 2AX 3AX 4AX 5AX 6AB 7AA 8AA 9AB 
    *  13    0.054669  (    8,    2)  1AX 2AX 3AX 4AX 5AX 6AA 7AB 8AB 9AA 
    *  14    0.045730  (    1,    1)  1AX 2AX 3AX 4AX 5AX 6AX 8AX 
    *  15    0.045730  (    9,    9)  1AX 2AX 3AX 4AX 5AX 7AX 9AX 
    *  16    0.044392  (  122,  122)  1AX 2AX 3AX 4AX 6AX 7AX 11AX 
    *  17   -0.043358  (   15,   15)  1AX 2AX 3AX 4AX 5AX 8AX 9AX 
    *  18   -0.041420  (    0,   15)  1AX 2AX 3AX 4AX 5AX 6AA 7AA 8AB 9AB 
    *  19   -0.041420  (   15,    0)  1AX 2AX 3AX 4AX 5AX 6AB 7AB 8AA 9AA 
    *  20    0.040557  (   39,  122)  1AX 2AX 3AX 4AB 5AA 6AX 7AX 10AA 11AB 

		 "A good bug is a dead bug" 

			 - Starship Troopers

		 "I didn't write FORTRAN.  That's the problem."

			 - Edward Valeev

*** tstart() called on trurls-machine
*** at Wed Mar  4 18:03:31 2020

   => Loading Basis Set <=

    Name: STO-3G
    Role: ORBITAL
    Keyword: BASIS
    atoms 1, 3 entry C          line    61 file /Users/teague/anaconda3/envs/gen_env/share/psi4/basis/sto-3g.gbs 
    atoms 2, 4 entry H          line    19 file /Users/teague/anaconda3/envs/gen_env/share/psi4/basis/sto-3g.gbs 


         ---------------------------------------------------------
                                   SCF
               by Justin Turney, Rob Parrish, Andy Simmonett
                          and Daniel G. A. Smith
                              RHF Reference
                        1 Threads,   7629 MiB Core
         ---------------------------------------------------------

  ==> Geometry <==

    Molecular point group: c1
    Full point group: D_inf_h

    Geometry (in Angstrom), charge = 0, multiplicity = 1:

       Center              X                  Y                   Z               Mass       
    ------------   -----------------  -----------------  -----------------  -----------------
         C            0.000000000000     0.000000000000    -0.602500000000    12.000000000000
         H            0.000000000000     0.000000000000    -1.669100000000     1.007825032230
         C            0.000000000000     0.000000000000     0.602500000000    12.000000000000
         H            0.000000000000     0.000000000000     1.669100000000     1.007825032230

  Running in c1 symmetry.

  Rotational constants: A = ************  B =      1.17659  C =      1.17659 [cm^-1]
  Rotational constants: A = ************  B =  35273.25991  C =  35273.25991 [MHz]
  Nuclear repulsion =   24.717023292456140

  Charge       = 0
  Multiplicity = 1
  Electrons    = 14
  Nalpha       = 7
  Nbeta        = 7

  ==> Algorithm <==

  SCF Algorithm Type is PK.
  DIIS enabled.
  MOM disabled.
  Fractional occupation disabled.
  Guess Type is SAD.
  Energy threshold   = 1.00e-06
  Density threshold  = 1.00e-06
  Integral threshold = 0.00e+00

  ==> Primary Basis <==

  Basis Set: STO-3G
    Blend: STO-3G
    Number of shells: 8
    Number of basis function: 12
    Number of Cartesian functions: 12
    Spherical Harmonics?: true
    Max angular momentum: 1

  ==> Pre-Iterations <==

   -------------------------------------------------------
    Irrep   Nso     Nmo     Nalpha   Nbeta   Ndocc  Nsocc
   -------------------------------------------------------
     A         12      12       0       0       0       0
   -------------------------------------------------------
    Total      12      12       7       7       7       0
   -------------------------------------------------------

  ==> Integral Setup <==

  Using in-core PK algorithm.
   Calculation information:
      Number of atoms:                   4
      Number of AO shells:               8
      Number of primitives:             24
      Number of atomic orbitals:        12
      Number of basis functions:        12

      Integral cutoff                 1.00e-12
      Number of threads:                 1

  Performing in-core PK
  Using 6162 doubles for integral storage.
  We computed 666 shell quartets total.
  Whereas there are 666 unique shell quartets.

  ==> DiskJK: Disk-Based J/K Matrices <==

    J tasked:                  Yes
    K tasked:                  Yes
    wK tasked:                  No
    Memory [MiB]:             5722
    Schwarz Cutoff:          1E-12

    OpenMP threads:              1

  Minimum eigenvalue in the overlap matrix is 1.3652074105E-01.
  Using Symmetric Orthogonalization.

  SCF Guess: Superposition of Atomic Densities via on-the-fly atomic UHF.

  ==> Iterations <==

                        Total Energy        Delta E     RMS |[F,P]|

   @RHF iter SAD:   -74.36212328906238   -7.43621e+01   0.00000e+00 
   @RHF iter   1:   -75.85180602215732   -1.48968e+00   3.16333e-03 DIIS
   @RHF iter   2:   -75.85251986755216   -7.13845e-04   4.83249e-04 DIIS
   @RHF iter   3:   -75.85254294244479   -2.30749e-05   4.25399e-05 DIIS
   @RHF iter   4:   -75.85254309559444   -1.53150e-07   2.22825e-06 DIIS
   @RHF iter   5:   -75.85254309621345   -6.19011e-10   2.42335e-07 DIIS
  Energy and wave function converged.


  ==> Post-Iterations <==

    Orbital Energies [Eh]
    ---------------------

    Doubly Occupied:                                                      

       1A    -10.999609     2A    -10.996729     3A     -0.951770  
       4A     -0.705119     5A     -0.606250     6A     -0.347461  
       7A     -0.347461  

    Virtual:                                                              

       8A      0.395189     9A      0.395189    10A      0.550091  
      11A      0.726541    12A      1.465805  

    Final Occupation by Irrep:
              A 
    DOCC [     7 ]

  @RHF Final Energy:   -75.85254309621345

   => Energetics <=

    Nuclear Repulsion Energy =             24.7170232924561404
    One-Electron Energy =                -151.2303359329930004
    Two-Electron Energy =                  50.6607695443234149
    Total Energy =                        -75.8525430962134521

Computation Completed


Properties will be evaluated at   0.000000,   0.000000,   0.000000 [a0]

Properties computed using the SCF density matrix

  Nuclear Dipole Moment: [e a0]
     X:     0.0000      Y:     0.0000      Z:     0.0000

  Electronic Dipole Moment: [e a0]
     X:    -0.0000      Y:     0.0000      Z:    -0.0000

  Dipole Moment: [e a0]
     X:    -0.0000      Y:     0.0000      Z:    -0.0000     Total:     0.0000

  Dipole Moment: [D]
     X:    -0.0000      Y:     0.0000      Z:    -0.0000     Total:     0.0000


*** tstop() called on trurls-machine at Wed Mar  4 18:03:32 2020
Module time:
	user time   =       0.21 seconds =       0.00 minutes
	system time =       0.01 seconds =       0.00 minutes
	total time  =          1 seconds =       0.02 minutes
Total time:
	user time   =      15.32 seconds =       0.26 minutes
	system time =       1.30 seconds =       0.02 minutes
	total time  =         17 seconds =       0.28 minutes
 MINTS: Wrapper to libmints.
   by Justin Turney

   Calculation information:
      Number of threads:                 1
      Number of atoms:                   4
      Number of AO shells:               8
      Number of SO shells:               8
      Number of primitives:             24
      Number of atomic orbitals:        12
      Number of basis functions:        12

      Number of irreps:                  1
      Integral cutoff                 0.00e+00
      Number of functions per irrep: [  12 ]

 OEINTS: Overlap, kinetic, potential, dipole, and quadrupole integrals
         stored in file 35.

      Computing two-electron integrals...done
      Computed 1153 non-zero two-electron integrals.
        Stored in file 33.


*** tstart() called on trurls-machine
*** at Wed Mar  4 18:03:32 2020


	Wfn Parameters:
	--------------------
	Wavefunction         = CCSD
	Number of irreps     = 1
	Number of MOs        = 12
	Number of active MOs = 12
	AO-Basis             = NONE
	Semicanonical        = false
	Reference            = RHF
	Print Level          = 1

	IRREP	# MOs	# FZDC	# DOCC	# SOCC	# VIRT	# FZVR
	-----	-----	------	------	------	------	------
	 A	   12	    0	    7	    0	    5	    0
	Transforming integrals...
	IWL integrals will be deleted.
	(OO|OO)...
	Presorting SO-basis two-electron integrals.
	Sorting File: SO Ints (nn|nn) nbuckets = 1
	Transforming the one-electron integrals and constructing Fock matrices
	Starting first half-transformation.
	Sorting half-transformed integrals.
	First half integral transformation complete.
	Starting second half-transformation.
	Two-electron integral transformation complete.
	(OO|OV)...
	Starting second half-transformation.
	Two-electron integral transformation complete.
	(OO|VV)...
	Starting second half-transformation.
	Two-electron integral transformation complete.
	(OV|OO)...
	Starting first half-transformation.
	Sorting half-transformed integrals.
	First half integral transformation complete.
	Starting second half-transformation.
	Two-electron integral transformation complete.
	(OV|OV)...
	Starting second half-transformation.
	Two-electron integral transformation complete.
	(OV|VV)...
	Starting second half-transformation.
	Two-electron integral transformation complete.
	(VV|OO)...
	Starting first half-transformation.
	Sorting half-transformed integrals.
	First half integral transformation complete.
	Starting second half-transformation.
	Two-electron integral transformation complete.
	(VV|OV)...
	Starting second half-transformation.
	Two-electron integral transformation complete.
	(VV|VV)...
	Starting second half-transformation.
	Two-electron integral transformation complete.
	Frozen core energy     =      0.00000000000000

	Size of irrep 0 of <ab|cd> integrals:      0.001 (MW) /      0.005 (MB)
	Total:                                     0.001 (MW) /      0.005 (MB)

	Size of irrep 0 of <ia|bc> integrals:      0.001 (MW) /      0.007 (MB)
	Total:                                     0.001 (MW) /      0.007 (MB)

	Size of irrep 0 of tijab amplitudes:       0.001 (MW) /      0.010 (MB)
	Total:                                     0.001 (MW) /      0.010 (MB)

	Nuclear Rep. energy          =     24.71702329245614
	SCF energy                   =    -75.85254309621345
	One-electron energy          =   -151.23033465494498
	Two-electron energy          =     50.66076826626807
	Reference energy             =    -75.85254309622078

*** tstop() called on trurls-machine at Wed Mar  4 18:03:32 2020
Module time:
	user time   =       0.01 seconds =       0.00 minutes
	system time =       0.04 seconds =       0.00 minutes
	total time  =          0 seconds =       0.00 minutes
Total time:
	user time   =      15.34 seconds =       0.26 minutes
	system time =       1.34 seconds =       0.02 minutes
	total time  =         17 seconds =       0.28 minutes
            **************************
            *                        *
            *        CCENERGY        *
            *                        *
            **************************

    Nuclear Rep. energy (wfn)     =   24.717023292456140
    SCF energy          (wfn)     =  -75.852543096213452
    Reference energy    (file100) =  -75.852543096220785

    Input parameters:
    -----------------
    Wave function   =     CCSD
    Reference wfn   =     RHF
    Brueckner       =     No
    Memory (Mbytes) =     8000.0
    Maxiter         =   1000000
    R_Convergence   =     1.0e-06
    E_Convergence   =     1.0e-06
    Restart         =     Yes
    DIIS            =     Yes
    AO Basis        =     NONE
    ABCD            =     NEW
    Cache Level     =     2
    Cache Type      =     LOW
    Print Level     =     1
    Num. of threads =     1
    # Amps to Print =     1000000
    Print MP2 Amps? =     No
    Analyze T2 Amps =     No
    Print Pair Ener =     No
    Local CC        =     No
    SCS-MP2         =     False
    SCSN-MP2        =     False
    SCS-CCSD        =     False

MP2 correlation energy -0.1514211861646708
                Solving CC Amplitude Equations
                ------------------------------
  Iter             Energy              RMS        T1Diag      D1Diag    New D1Diag    D2Diag
  ----     ---------------------    ---------   ----------  ----------  ----------   --------
     0        -0.151421186164671    0.000e+00    0.000000    0.000000    0.000000    0.153525
     1        -0.157768208340081    4.632e-02    0.000774    0.002705    0.002705    0.166010
     2        -0.167950516965528    2.564e-02    0.001207    0.003946    0.003946    0.186321
     3        -0.169580795083388    8.474e-03    0.001271    0.004012    0.004012    0.193998
     4        -0.170301599995579    3.082e-03    0.001219    0.003644    0.003644    0.197767
     5        -0.170324046446379    3.634e-04    0.001197    0.003635    0.003635    0.197980
     6        -0.170312117539616    1.094e-04    0.001195    0.003630    0.003630    0.197959
     7        -0.170315403763172    3.242e-05    0.001197    0.003638    0.003638    0.197976
     8        -0.170315484307698    4.349e-06    0.001197    0.003639    0.003639    0.197977
     9        -0.170315453793066    9.282e-07    0.001197    0.003639    0.003639    0.197977

    Iterations converged.


    Largest TIA Amplitudes:
              4   3         0.0036289083
              3   2        -0.0025339841
              3   4         0.0006026925
              2   3         0.0002746661
              1   4        -0.0001531091
              1   2        -0.0001396741
              0   3        -0.0000041044

    Largest TIjAb Amplitudes:
      5   5   0   0        -0.1189772148
      6   6   1   1        -0.1189772148
      5   5   0   1         0.0576948854
      5   5   1   0         0.0576948854
      5   6   0   0         0.0576948854
      5   6   1   1        -0.0576948854
      6   5   0   0         0.0576948854
      6   5   1   1        -0.0576948854
      6   6   0   1        -0.0576948854
      6   6   1   0        -0.0576948854
      5   6   0   1         0.0565014798
      6   5   1   0         0.0565014798
      5   5   1   1        -0.0483190726
      6   6   0   0        -0.0483190726
      4   4   3   3        -0.0464829635
      3   4   2   3         0.0425590943
      4   3   3   2         0.0425590943
      3   3   2   2        -0.0399342263
      3   3   3   3        -0.0378613498
      4   4   2   2        -0.0370947994
      2   5   2   0         0.0338206332
      2   6   2   1        -0.0338206332
      5   2   0   2         0.0338206332
      6   2   1   2        -0.0338206332
      3   4   3   2         0.0321928802
      4   3   2   3         0.0321928802
      2   5   0   2         0.0298967412
      2   6   1   2        -0.0298967412
      5   2   2   0         0.0298967412
      6   2   2   1        -0.0298967412
      5   5   2   2        -0.0218611883
      6   6   2   2        -0.0218611883
      3   5   0   3         0.0217797638
      3   6   1   3        -0.0217797638
      5   3   3   0         0.0217797638
      6   3   3   1        -0.0217797638
      4   5   4   0         0.0217242483
      4   6   4   1        -0.0217242483
      5   4   0   4         0.0217242483
      6   4   1   4        -0.0217242483
      2   2   2   2        -0.0216044960
      3   5   3   0         0.0201451104
      3   6   3   1        -0.0201451104
      5   3   0   3         0.0201451104
      6   3   1   3        -0.0201451104
      3   3   0   0        -0.0191318022
      3   3   1   1        -0.0191318022
      2   5   2   1        -0.0189478566
      2   6   2   0        -0.0189478566
      5   2   1   2        -0.0189478566
      6   2   0   2        -0.0189478566
      2   3   2   3        -0.0182904091
      3   2   3   2        -0.0182904091
      4   4   4   4        -0.0174630001
      2   5   4   0         0.0174378893
      2   6   4   1        -0.0174378893
      5   2   0   4         0.0174378893
      6   2   1   4        -0.0174378893
      3   4   3   4        -0.0170041121
      4   3   4   3        -0.0170041121
      2   2   0   0        -0.0169382032
      2   2   1   1        -0.0169382032
      2   5   1   2        -0.0167495138
      2   6   0   2        -0.0167495138
      5   2   2   1        -0.0167495138
      6   2   2   0        -0.0167495138
      2   4   2   4        -0.0156900699
      4   2   4   2        -0.0156900699
      2   3   3   2        -0.0142856104
      3   2   2   3        -0.0142856104
      5   6   1   0         0.0141566624
      6   5   0   1         0.0141566624
      2   2   4   4        -0.0140871246
      3   4   4   3        -0.0140161630
      4   3   3   4        -0.0140161630
      3   5   1   3        -0.0122020140
      3   6   0   3        -0.0122020140
      5   3   3   1        -0.0122020140
      6   3   3   0        -0.0122020140
      4   5   4   1        -0.0121709117
      4   6   4   0        -0.0121709117
      5   4   1   4        -0.0121709117
      6   4   0   4        -0.0121709117
      3   3   2   4         0.0121114310
      3   3   4   2         0.0121114310
      2   2   2   4        -0.0120909236
      2   2   4   2        -0.0120909236
      3   5   3   1        -0.0112862068
      3   6   3   0        -0.0112862068
      5   3   1   3        -0.0112862068
      6   3   0   3        -0.0112862068
      2   5   0   4         0.0112655736
      2   6   1   4        -0.0112655736
      5   2   4   0         0.0112655736
      6   2   4   1        -0.0112655736
      4   5   0   2        -0.0102264518
      4   6   1   2         0.0102264518
      5   4   2   0        -0.0102264518
      6   4   2   1         0.0102264518
      2   4   2   2         0.0099523744
      4   2   2   2         0.0099523744
      2   5   4   1        -0.0097694985
      2   6   4   0        -0.0097694985
      5   2   1   4        -0.0097694985
      6   2   0   4        -0.0097694985
      2   4   4   4        -0.0095664675
      4   2   4   4        -0.0095664675
      5   5   2   4        -0.0094602613
      5   5   4   2        -0.0094602613
      6   6   2   4        -0.0094602613
      6   6   4   2        -0.0094602613
      2   4   3   3         0.0086793028
      4   2   3   3         0.0086793028
      2   4   4   2        -0.0083402695
      4   2   2   4        -0.0083402695
      4   5   0   4         0.0082009115
      4   6   1   4        -0.0082009115
      5   4   4   0         0.0082009115
      6   4   4   1        -0.0082009115
      2   2   3   3        -0.0078339044
      3   3   4   4        -0.0075166249
      4   4   2   4         0.0068872470
      4   4   4   2         0.0068872470
      5   5   4   4        -0.0066111440
      6   6   4   4        -0.0066111440
      2   5   1   4        -0.0063114866
      2   6   0   4        -0.0063114866
      5   2   4   1        -0.0063114866
      6   2   4   0        -0.0063114866
      5   5   3   3        -0.0057780281
      6   6   3   3        -0.0057780281
      4   5   1   2         0.0057293233
      4   6   0   2         0.0057293233
      5   4   2   1         0.0057293233
      6   4   2   0         0.0057293233
      2   3   3   4         0.0045961714
      3   2   4   3         0.0045961714
      4   5   1   4        -0.0045945235
      4   6   0   4        -0.0045945235
      5   4   4   1        -0.0045945235
      6   4   4   0        -0.0045945235
      2   4   0   0         0.0037105020
      2   4   1   1         0.0037105020
      4   2   0   0         0.0037105020
      4   2   1   1         0.0037105020
      4   5   2   0         0.0033264550
      4   6   2   1        -0.0033264550
      5   4   0   2         0.0033264550
      6   4   1   2        -0.0033264550
      4   4   0   0        -0.0029368168
      4   4   1   1        -0.0029368168
      4   5   2   1        -0.0018636313
      4   6   2   0        -0.0018636313
      5   4   1   2        -0.0018636313
      6   4   0   2        -0.0018636313
      1   1   4   4        -0.0012901242
      0   0   4   4        -0.0012137735
      0   5   0   2        -0.0010533665
      0   6   1   2         0.0010533665
      5   0   2   0        -0.0010533665
      6   0   2   1         0.0010533665
      0   2   0   0         0.0009422720
      0   2   1   1         0.0009422720
      2   0   0   0         0.0009422720
      2   0   1   1         0.0009422720
      1   2   4   3        -0.0009297019
      2   1   3   4        -0.0009297019
      1   3   0   0         0.0009269737
      1   3   1   1         0.0009269737
      3   1   0   0         0.0009269737
      3   1   1   1         0.0009269737
      1   1   2   2        -0.0009250848
      0   0   2   2        -0.0009239232
      0   2   4   4         0.0008634711
      2   0   4   4         0.0008634711
      1   3   4   4         0.0007892964
      3   1   4   4         0.0007892964
      1   2   3   4        -0.0007203898
      2   1   4   3        -0.0007203898
      0   3   4   3        -0.0007006721
      3   0   3   4        -0.0007006721
      0   5   1   2         0.0005901438
      0   6   0   2         0.0005901438
      5   0   2   1         0.0005901438
      6   0   2   0         0.0005901438
      1   5   0   3        -0.0005849089
      1   6   1   3         0.0005849089
      5   1   3   0        -0.0005849089
      6   1   3   1         0.0005849089
      0   0   3   3        -0.0005444062
      0   5   0   4        -0.0005316219
      0   6   1   4         0.0005316219
      5   0   4   0        -0.0005316219
      6   0   4   1         0.0005316219
      1   1   0   0        -0.0005165743
      1   1   1   1        -0.0005165743
      1   1   3   3        -0.0005080811
      0   1   3   2        -0.0004868147
      1   0   2   3        -0.0004868147
      0   1   2   3        -0.0004783595
      1   0   3   2        -0.0004783595
      0   0   0   0        -0.0004748890
      0   0   1   1        -0.0004748890
      0   2   3   3         0.0004525761
      2   0   3   3         0.0004525761
      0   0   2   4        -0.0004252189
      0   0   4   2        -0.0004252189
      1   1   2   4        -0.0004144430
      1   1   4   2        -0.0004144430
      0   3   3   4        -0.0003981526
      3   0   4   3        -0.0003981526
      0   1   3   4         0.0003717298
      1   0   4   3         0.0003717298
      0   4   4   2         0.0003670646
      4   0   2   4         0.0003670646
      1   3   2   2        -0.0003554751
      3   1   2   2        -0.0003554751
      0   2   2   4        -0.0003396706
      2   0   4   2        -0.0003396706
      1   5   1   3         0.0003276925
      1   6   0   3         0.0003276925
      5   1   3   1         0.0003276925
      6   1   3   0         0.0003276925
      0   5   4   0         0.0003225041
      0   6   4   1        -0.0003225041
      5   0   0   4         0.0003225041
      6   0   1   4        -0.0003225041
      0   2   2   2        -0.0003224250
      2   0   2   2        -0.0003224250
      1   5   3   0        -0.0003182379
      1   6   3   1         0.0003182379
      5   1   0   3        -0.0003182379
      6   1   1   3         0.0003182379
      0   1   4   3         0.0003178933
      1   0   3   4         0.0003178933
      1   3   3   3         0.0003091916
      3   1   3   3         0.0003091916
      2   3   4   3        -0.0002991771
      3   2   3   4        -0.0002991771
      0   5   1   4         0.0002978387
      0   6   0   4         0.0002978387
      5   0   4   1         0.0002978387
      6   0   4   0         0.0002978387
      0   4   2   4        -0.0002825422
      4   0   4   2        -0.0002825422
      0   4   4   4        -0.0002494714
      4   0   4   4        -0.0002494714
      0   4   3   3         0.0002493368
      4   0   3   3         0.0002493368
      1   4   2   3         0.0002164627
      4   1   3   2         0.0002164627
      1   3   4   2        -0.0002143799
      3   1   2   4        -0.0002143799
      1   4   3   2        -0.0001877304
      4   1   2   3        -0.0001877304
      0   5   4   1        -0.0001806815
      0   6   4   0        -0.0001806815
      5   0   1   4        -0.0001806815
      6   0   0   4        -0.0001806815
      1   5   3   1         0.0001782913
      1   6   3   0         0.0001782913
      5   1   1   3         0.0001782913
      6   1   0   3         0.0001782913
      1   2   3   2        -0.0001709576
      2   1   2   3        -0.0001709576
      0   3   2   3        -0.0001554378
      3   0   3   2        -0.0001554378
      0   4   0   0        -0.0001505069
      0   4   1   1        -0.0001505069
      4   0   0   0        -0.0001505069
      4   0   1   1        -0.0001505069
      0   5   2   0        -0.0001126807
      0   6   2   1         0.0001126807
      5   0   0   2        -0.0001126807
      6   0   1   2         0.0001126807
      0   2   4   2        -0.0001116357
      2   0   2   4        -0.0001116357
      0   3   3   2        -0.0000718959
      3   0   2   3        -0.0000718959
      1   4   4   3        -0.0000702470
      4   1   3   4        -0.0000702470
      0   5   2   1         0.0000631288
      0   6   2   0         0.0000631288
      5   0   1   2         0.0000631288
      6   0   0   2         0.0000631288
      1   2   2   3        -0.0000520809
      2   1   3   2        -0.0000520809
      1   4   3   4        -0.0000359211
      4   1   4   3        -0.0000359211
      0   4   2   2        -0.0000306068
      4   0   2   2        -0.0000306068
      1   3   2   4        -0.0000037636
      3   1   4   2        -0.0000037636

    SCF energy       (wfn)                    =  -75.852543096213452
    Reference energy (file100)                =  -75.852543096220785

    Opposite-spin MP2 correlation energy      =   -0.119727046833586
    Same-spin MP2 correlation energy          =   -0.031694139331084
    MP2 correlation energy                    =   -0.151421186164671
      * MP2 total energy                      =  -76.003964282385454

    Opposite-spin CCSD correlation energy     =   -0.151971254369115
    Same-spin CCSD correlation energy         =   -0.018344199423952
    CCSD correlation energy                   =   -0.170315453793066
      * CCSD total energy                     =  -76.022858550013851


    Psi4 stopped on: Wednesday, 04 March 2020 06:03PM
    Psi4 wall time for execution: 0:00:19.65

*** Psi4 exiting successfully. Buy a developer a beer!
