
    -----------------------------------------------------------------------
          Psi4: An Open-Source Ab Initio Electronic Structure Package
                               Psi4 1.3.2 release

                         Git: Rev {HEAD} ecbda83 


    R. M. Parrish, L. A. Burns, D. G. A. Smith, A. C. Simmonett,
    A. E. DePrince III, E. G. Hohenstein, U. Bozkaya, A. Yu. Sokolov,
    R. Di Remigio, R. M. Richard, J. F. Gonthier, A. M. James,
    H. R. McAlexander, A. Kumar, M. Saitow, X. Wang, B. P. Pritchard,
    P. Verma, H. F. Schaefer III, K. Patkowski, R. A. King, E. F. Valeev,
    F. A. Evangelista, J. M. Turney, T. D. Crawford, and C. D. Sherrill,
    J. Chem. Theory Comput. 13(7) pp 3185--3197 (2017).
    (doi: 10.1021/acs.jctc.7b00174)


                         Additional Contributions by
    P. Kraus, H. Kruse, M. H. Lechner, M. C. Schieber, R. A. Shaw,
    A. Alenaizan, R. Galvelis, Z. L. Glick, S. Lehtola, and J. P. Misiewicz

    -----------------------------------------------------------------------


    Psi4 started on: Tuesday, 03 March 2020 02:50PM

    Process ID: 88819
    Host:       trurls-machine
    PSIDATADIR: /Users/teague/anaconda3/envs/gen_env/share/psi4
    Memory:     500.0 MiB
    Threads:    1
    
  ==> Input File <==

--------------------------------------------------------------------------
"""This is a template for psi4 input format."""
import numpy
import sys

from openfermion.config import *
from openfermion.hamiltonians import MolecularData
from openfermion.ops import general_basis_change

from numpy import array

sys.path.append('/Users/teague/.local/lib/python3.7/site-packages/openfermionpsi4')
from _psi4_conversion_functions import *


# Set memory that job can use in megabytes.
memory 8000 mb

# Initialize molecular data.
_description = '104'
if _description == 'None':
    _description = None
molecule = MolecularData([('O', (0.0, 0.0, 0.0)), ('H', (0.757, 0.586, 0.0)), ('H', (-0.757, 0.586, 0.0))],
                         'sto-3g',
                         1,
                         0,
                         _description,
                          filename='molecule_data/H2O_sto-3g_singlet_104')

# Set molecular geometry and symmetry.
molecule mol {
O 0.0 0.0 0.0
H 0.757 0.586 0.0
H -0.757 0.586 0.0
symmetry c1
}
mol.set_multiplicity(1)
mol.set_molecular_charge(0)

# Set reference and guess.
if molecule.multiplicity == 1:
    set reference rhf
    set guess sad
else:
    set reference rohf
    set guess gwh

# Set global parameters of calculation.
set globals {
    basis sto-3g
    freeze_core false
    fail_on_maxiter True
    df_scf_guess false
    opdm true
    tpdm true
    soscf false
    scf_type pk
    maxiter 1e6
    num_amps_print 1e6
    r_convergence 1e-6
    d_convergence 1e-6
    e_convergence 1e-6
    ints_tolerance EQUALITY_TOLERANCE
    damping_percentage 0
}

# Run self-consistent field (SCF) calculation.
if True:
    try:
        hf_energy, hf_wavefunction = energy('scf', return_wfn=True)
        if False:
            print('Hartree-Fock energy for {} ({} electrons) is {}.'.format(
                molecule.name, molecule.n_electrons, hf_energy))
    except:
        if False:
            print('WARNING: SCF calculation failed.')
        else:
            raise
    finally:
        # Get orbitals and Fock matrix.
        molecule.hf_energy = hf_energy
        molecule.nuclear_repulsion = mol.nuclear_repulsion_energy()
        molecule.canonical_orbitals = numpy.asarray(hf_wavefunction.Ca())
        molecule.overlap_integrals = numpy.asarray(hf_wavefunction.S())
        molecule.n_orbitals = molecule.canonical_orbitals.shape[0]
        molecule.n_qubits = 2 * molecule.n_orbitals
        molecule.orbital_energies = numpy.asarray(hf_wavefunction.epsilon_a())
        molecule.fock_matrix = numpy.asarray(hf_wavefunction.Fa())

        # Get integrals using MintsHelper.
        mints = MintsHelper(hf_wavefunction.basisset())
        molecule.one_body_integrals = general_basis_change(
            numpy.asarray(mints.ao_kinetic()), molecule.canonical_orbitals, (1, 0))
        molecule.one_body_integrals += general_basis_change(
            numpy.asarray(mints.ao_potential()), molecule.canonical_orbitals, (1, 0))
        two_body_integrals = numpy.asarray(mints.ao_eri())
        two_body_integrals.reshape((molecule.n_orbitals, molecule.n_orbitals,
                                    molecule.n_orbitals, molecule.n_orbitals))
        two_body_integrals = numpy.einsum('psqr', two_body_integrals)
        two_body_integrals = general_basis_change(
            two_body_integrals, molecule.canonical_orbitals, (1, 1, 0, 0))
        molecule.two_body_integrals = two_body_integrals
        molecule.save()


# Perform MP2 energy calculation if there are at least two electrons.
if True:
    try:
        assert molecule.n_electrons > 1
        mp2_energy = energy('mp2')
        if False:
            print('MP2 energy for {} ({} electrons) is {}.'.format(
                molecule.name, molecule.n_electrons, mp2_energy))
    except:
        if False:
            print('WARNING: MP2 calculation failed.')
        else:
            raise
    else:
        molecule.mp2_energy = mp2_energy
        molecule.save()


# Perform configuration interaction singles and doubles (CISD) calculation.
if True:
    set qc_module detci
    try:
        cisd_energy, cisd_wavefunction = energy('cisd', return_wfn=True)
        if False:
            print('CISD energy for {} ({} electrons) is {}.'.format(
                molecule.name, molecule.n_electrons, cisd_energy))
    except:
        if False:
            print('WARNING: CISD calculation failed.')
        else:
            raise
    else:
        # For the functions below, "a" and "b" refer to "up and "down" spins.
        molecule.cisd_energy = cisd_energy

        # Get 1-RDM from CISD calculation.
        cisd_one_rdm_a = numpy.array(cisd_wavefunction.get_opdm(
            0, 0, 'A', True)).reshape(molecule.n_orbitals, molecule.n_orbitals)
        cisd_one_rdm_b = numpy.array(cisd_wavefunction.get_opdm(
            0, 0, 'B', True)).reshape(molecule.n_orbitals, molecule.n_orbitals)

        # Get 2-RDM from CISD calculation.
        cisd_two_rdm_aa = numpy.array(cisd_wavefunction.get_tpdm(
            'AA', False)).reshape(molecule.n_orbitals, molecule.n_orbitals,
                                  molecule.n_orbitals, molecule.n_orbitals)
        cisd_two_rdm_ab = numpy.array(cisd_wavefunction.get_tpdm(
            'AB', False)).reshape(molecule.n_orbitals, molecule.n_orbitals,
                                  molecule.n_orbitals, molecule.n_orbitals)
        cisd_two_rdm_bb = numpy.array(cisd_wavefunction.get_tpdm(
            'BB', False)).reshape(molecule.n_orbitals, molecule.n_orbitals,
                                  molecule.n_orbitals, molecule.n_orbitals)

        # Get overall RDMs.
        cisd_one_rdm, cisd_two_rdm = unpack_spatial_rdm(
            cisd_one_rdm_a, cisd_one_rdm_b, cisd_two_rdm_aa,
            cisd_two_rdm_ab, cisd_two_rdm_bb)

        # Store 1-RDM in molecule file, 2-RDM separately in other file.
        molecule.cisd_one_rdm = cisd_one_rdm
        molecule.cisd_two_rdm = cisd_two_rdm
        molecule.save()


# Perform exact diagonalization.
if True:
    set qc_module detci
    try:
        fci_energy, fci_wavefunction = energy('fci', return_wfn=True)
        if False:
            print('FCI energy for {} ({} electrons) is {}.'.format(
                molecule.name, molecule.n_electrons, fci_energy))
    except:
        if False:
            print('WARNING: FCI calculation failed.')
        else:
            raise
    finally:
        # For the functions below, "a" and "b" refer to "up and "down" spins.
        molecule.fci_energy = fci_energy

        # Get 1-RDM from FCI calculation.
        fci_one_rdm_a = numpy.array(fci_wavefunction.get_opdm(
            0, 0, 'A', True)).reshape(molecule.n_orbitals, molecule.n_orbitals)
        fci_one_rdm_b = numpy.array(fci_wavefunction.get_opdm(
            0, 0, 'B', True)).reshape(molecule.n_orbitals, molecule.n_orbitals)

        # Get 2-RDM from FCI calculation.
        fci_two_rdm_aa = numpy.array(fci_wavefunction.get_tpdm(
            'AA', False)).reshape(molecule.n_orbitals, molecule.n_orbitals,
                                  molecule.n_orbitals, molecule.n_orbitals)
        fci_two_rdm_ab = numpy.array(fci_wavefunction.get_tpdm(
            'AB', False)).reshape(molecule.n_orbitals, molecule.n_orbitals,
                                  molecule.n_orbitals, molecule.n_orbitals)
        fci_two_rdm_bb = numpy.array(fci_wavefunction.get_tpdm(
            'BB', False)).reshape(molecule.n_orbitals, molecule.n_orbitals,
                                  molecule.n_orbitals, molecule.n_orbitals)

        # Get overall RDMs.
        fci_one_rdm, fci_two_rdm = unpack_spatial_rdm(
            fci_one_rdm_a, fci_one_rdm_b,
            fci_two_rdm_aa, fci_two_rdm_ab, fci_two_rdm_bb)

        # Store 1-RDM in molecule file, 2-RDM separately in other file.
        molecule.fci_one_rdm = fci_one_rdm
        molecule.fci_two_rdm = fci_two_rdm
        molecule.save()


# Perform coupled cluster singles and doubles (CCSD) calculation.
if True:
    set qc_module ccenergy
    try:
        ccsd_energy = energy('ccsd')
        if False:
            print('CCSD energy for {} ({} electrons) is {}.'.format(
                molecule.name, molecule.n_electrons, ccsd_energy))
    except:
        if False:
            print('WARNING: CCSD calculation failed.')
        else:
            raise
    else:
        molecule.ccsd_energy = ccsd_energy

        # Merge CC amplitudes into molecule by parsing
        psi_filename = outfile_name()
        single_cc_amplitudes, double_cc_amplitudes = (
            parse_psi4_ccsd_amplitudes(
                2 * molecule.n_orbitals,
                molecule.get_n_alpha_electrons(),
                molecule.get_n_beta_electrons(),
                psi_filename))

        molecule.ccsd_single_amps = single_cc_amplitudes
        molecule.ccsd_double_amps = double_cc_amplitudes
        molecule.save()
--------------------------------------------------------------------------

  Memory set to   7.451 GiB by Python driver.

*** tstart() called on trurls-machine
*** at Tue Mar  3 14:50:39 2020

   => Loading Basis Set <=

    Name: STO-3G
    Role: ORBITAL
    Keyword: BASIS
    atoms 1   entry O          line    81 file /Users/teague/anaconda3/envs/gen_env/share/psi4/basis/sto-3g.gbs 
    atoms 2-3 entry H          line    19 file /Users/teague/anaconda3/envs/gen_env/share/psi4/basis/sto-3g.gbs 


         ---------------------------------------------------------
                                   SCF
               by Justin Turney, Rob Parrish, Andy Simmonett
                          and Daniel G. A. Smith
                              RHF Reference
                        1 Threads,   7629 MiB Core
         ---------------------------------------------------------

  ==> Geometry <==

    Molecular point group: c1
    Full point group: C2v

    Geometry (in Angstrom), charge = 0, multiplicity = 1:

       Center              X                  Y                   Z               Mass       
    ------------   -----------------  -----------------  -----------------  -----------------
         O            0.000000000000     0.000000000000    -0.065582115747    15.994914619570
         H            0.757000000000     0.000000000000     0.520417884253     1.007825032230
         H           -0.757000000000     0.000000000000     0.520417884253     1.007825032230

  Running in c1 symmetry.

  Rotational constants: A =     27.42405  B =     14.59451  C =      9.52533 [cm^-1]
  Rotational constants: A = 822152.21994  B = 437532.48542  C = 285562.17493 [MHz]
  Nuclear repulsion =    9.193913156279891

  Charge       = 0
  Multiplicity = 1
  Electrons    = 10
  Nalpha       = 5
  Nbeta        = 5

  ==> Algorithm <==

  SCF Algorithm Type is PK.
  DIIS enabled.
  MOM disabled.
  Fractional occupation disabled.
  Guess Type is SAD.
  Energy threshold   = 1.00e-06
  Density threshold  = 1.00e-06
  Integral threshold = 0.00e+00

  ==> Primary Basis <==

  Basis Set: STO-3G
    Blend: STO-3G
    Number of shells: 5
    Number of basis function: 7
    Number of Cartesian functions: 7
    Spherical Harmonics?: true
    Max angular momentum: 1

  ==> Pre-Iterations <==

   -------------------------------------------------------
    Irrep   Nso     Nmo     Nalpha   Nbeta   Ndocc  Nsocc
   -------------------------------------------------------
     A          7       7       0       0       0       0
   -------------------------------------------------------
    Total       7       7       5       5       5       0
   -------------------------------------------------------

  ==> Integral Setup <==

  Using in-core PK algorithm.
   Calculation information:
      Number of atoms:                   3
      Number of AO shells:               5
      Number of primitives:             15
      Number of atomic orbitals:         7
      Number of basis functions:         7

      Integral cutoff                 1.00e-12
      Number of threads:                 1

  Performing in-core PK
  Using 812 doubles for integral storage.
  We computed 120 shell quartets total.
  Whereas there are 120 unique shell quartets.

  ==> DiskJK: Disk-Based J/K Matrices <==

    J tasked:                  Yes
    K tasked:                  Yes
    wK tasked:                  No
    Memory [MiB]:             5722
    Schwarz Cutoff:          1E-12

    OpenMP threads:              1

  Minimum eigenvalue in the overlap matrix is 3.4228451120E-01.
  Using Symmetric Orthogonalization.

  SCF Guess: Superposition of Atomic Densities via on-the-fly atomic UHF.

  ==> Iterations <==

                        Total Energy        Delta E     RMS |[F,P]|

   @RHF iter SAD:   -74.22197995633624   -7.42220e+01   0.00000e+00 
   @RHF iter   1:   -74.91362289647299   -6.91643e-01   3.54712e-02 DIIS
   @RHF iter   2:   -74.96202537513733   -4.84025e-02   5.35109e-03 DIIS
   @RHF iter   3:   -74.96287717669340   -8.51802e-04   1.26533e-03 DIIS
   @RHF iter   4:   -74.96294553932108   -6.83626e-05   1.22929e-04 DIIS
   @RHF iter   5:   -74.96294665271569   -1.11339e-06   8.25266e-06 DIIS
   @RHF iter   6:   -74.96294665659151   -3.87583e-09   5.00532e-07 DIIS
  Energy and wave function converged.


  ==> Post-Iterations <==

    Orbital Energies [Eh]
    ---------------------

    Doubly Occupied:                                                      

       1A    -20.241763     2A     -1.268361     3A     -0.617863  
       4A     -0.452999     5A     -0.391243  

    Virtual:                                                              

       6A      0.605576     7A      0.742245  

    Final Occupation by Irrep:
              A 
    DOCC [     5 ]

  @RHF Final Energy:   -74.96294665659151

   => Energetics <=

    Nuclear Repulsion Energy =              9.1939131562798906
    One-Electron Energy =                -122.3692768927921577
    Two-Electron Energy =                  38.2124170799207548
    Total Energy =                        -74.9629466565915124

Computation Completed


Properties will be evaluated at   0.000000,   0.000000,   0.000000 [a0]

Properties computed using the SCF density matrix

  Nuclear Dipole Moment: [e a0]
     X:     0.0000      Y:     0.0000      Z:     0.9754

  Electronic Dipole Moment: [e a0]
     X:     0.0000      Y:     0.0000      Z:    -0.2965

  Dipole Moment: [e a0]
     X:     0.0000      Y:     0.0000      Z:     0.6789     Total:     0.6789

  Dipole Moment: [D]
     X:     0.0000      Y:     0.0000      Z:     1.7257     Total:     1.7257


*** tstop() called on trurls-machine at Tue Mar  3 14:50:40 2020
Module time:
	user time   =       0.18 seconds =       0.00 minutes
	system time =       0.01 seconds =       0.00 minutes
	total time  =          1 seconds =       0.02 minutes
Total time:
	user time   =       0.18 seconds =       0.00 minutes
	system time =       0.01 seconds =       0.00 minutes
	total time  =          1 seconds =       0.02 minutes

*** tstart() called on trurls-machine
*** at Tue Mar  3 14:50:40 2020

   => Loading Basis Set <=

    Name: STO-3G
    Role: ORBITAL
    Keyword: BASIS
    atoms 1   entry O          line    81 file /Users/teague/anaconda3/envs/gen_env/share/psi4/basis/sto-3g.gbs 
    atoms 2-3 entry H          line    19 file /Users/teague/anaconda3/envs/gen_env/share/psi4/basis/sto-3g.gbs 


         ---------------------------------------------------------
                                   SCF
               by Justin Turney, Rob Parrish, Andy Simmonett
                          and Daniel G. A. Smith
                              RHF Reference
                        1 Threads,   7629 MiB Core
         ---------------------------------------------------------

  ==> Geometry <==

    Molecular point group: c1
    Full point group: C2v

    Geometry (in Angstrom), charge = 0, multiplicity = 1:

       Center              X                  Y                   Z               Mass       
    ------------   -----------------  -----------------  -----------------  -----------------
         O            0.000000000000     0.000000000000    -0.065582115747    15.994914619570
         H            0.757000000000     0.000000000000     0.520417884253     1.007825032230
         H           -0.757000000000     0.000000000000     0.520417884253     1.007825032230

  Running in c1 symmetry.

  Rotational constants: A =     27.42405  B =     14.59451  C =      9.52533 [cm^-1]
  Rotational constants: A = 822152.21994  B = 437532.48542  C = 285562.17493 [MHz]
  Nuclear repulsion =    9.193913156279891

  Charge       = 0
  Multiplicity = 1
  Electrons    = 10
  Nalpha       = 5
  Nbeta        = 5

  ==> Algorithm <==

  SCF Algorithm Type is PK.
  DIIS enabled.
  MOM disabled.
  Fractional occupation disabled.
  Guess Type is SAD.
  Energy threshold   = 1.00e-06
  Density threshold  = 1.00e-06
  Integral threshold = 0.00e+00

  ==> Primary Basis <==

  Basis Set: STO-3G
    Blend: STO-3G
    Number of shells: 5
    Number of basis function: 7
    Number of Cartesian functions: 7
    Spherical Harmonics?: true
    Max angular momentum: 1

  ==> Pre-Iterations <==

   -------------------------------------------------------
    Irrep   Nso     Nmo     Nalpha   Nbeta   Ndocc  Nsocc
   -------------------------------------------------------
     A          7       7       0       0       0       0
   -------------------------------------------------------
    Total       7       7       5       5       5       0
   -------------------------------------------------------

  ==> Integral Setup <==

  Using in-core PK algorithm.
   Calculation information:
      Number of atoms:                   3
      Number of AO shells:               5
      Number of primitives:             15
      Number of atomic orbitals:         7
      Number of basis functions:         7

      Integral cutoff                 1.00e-12
      Number of threads:                 1

  Performing in-core PK
  Using 812 doubles for integral storage.
  We computed 120 shell quartets total.
  Whereas there are 120 unique shell quartets.

  ==> DiskJK: Disk-Based J/K Matrices <==

    J tasked:                  Yes
    K tasked:                  Yes
    wK tasked:                  No
    Memory [MiB]:             5722
    Schwarz Cutoff:          1E-12

    OpenMP threads:              1

  Minimum eigenvalue in the overlap matrix is 3.4228451120E-01.
  Using Symmetric Orthogonalization.

  SCF Guess: Superposition of Atomic Densities via on-the-fly atomic UHF.

  ==> Iterations <==

                        Total Energy        Delta E     RMS |[F,P]|

   @RHF iter SAD:   -74.22197995633624   -7.42220e+01   0.00000e+00 
   @RHF iter   1:   -74.91362289647299   -6.91643e-01   3.54712e-02 DIIS
   @RHF iter   2:   -74.96202537513733   -4.84025e-02   5.35109e-03 DIIS
   @RHF iter   3:   -74.96287717669340   -8.51802e-04   1.26533e-03 DIIS
   @RHF iter   4:   -74.96294553932108   -6.83626e-05   1.22929e-04 DIIS
   @RHF iter   5:   -74.96294665271569   -1.11339e-06   8.25266e-06 DIIS
   @RHF iter   6:   -74.96294665659151   -3.87583e-09   5.00532e-07 DIIS
  Energy and wave function converged.


  ==> Post-Iterations <==

    Orbital Energies [Eh]
    ---------------------

    Doubly Occupied:                                                      

       1A    -20.241763     2A     -1.268361     3A     -0.617863  
       4A     -0.452999     5A     -0.391243  

    Virtual:                                                              

       6A      0.605576     7A      0.742245  

    Final Occupation by Irrep:
              A 
    DOCC [     5 ]

  @RHF Final Energy:   -74.96294665659151

   => Energetics <=

    Nuclear Repulsion Energy =              9.1939131562798906
    One-Electron Energy =                -122.3692768927921577
    Two-Electron Energy =                  38.2124170799207548
    Total Energy =                        -74.9629466565915124

Computation Completed


Properties will be evaluated at   0.000000,   0.000000,   0.000000 [a0]

Properties computed using the SCF density matrix

  Nuclear Dipole Moment: [e a0]
     X:     0.0000      Y:     0.0000      Z:     0.9754

  Electronic Dipole Moment: [e a0]
     X:     0.0000      Y:     0.0000      Z:    -0.2965

  Dipole Moment: [e a0]
     X:     0.0000      Y:     0.0000      Z:     0.6789     Total:     0.6789

  Dipole Moment: [D]
     X:     0.0000      Y:     0.0000      Z:     1.7257     Total:     1.7257


*** tstop() called on trurls-machine at Tue Mar  3 14:50:40 2020
Module time:
	user time   =       0.16 seconds =       0.00 minutes
	system time =       0.01 seconds =       0.00 minutes
	total time  =          0 seconds =       0.00 minutes
Total time:
	user time   =       0.37 seconds =       0.01 minutes
	system time =       0.03 seconds =       0.00 minutes
	total time  =          1 seconds =       0.02 minutes

*** tstart() called on trurls-machine
*** at Tue Mar  3 14:50:40 2020


  //>>>>>>>>>>>>>>>>>>>>>>>>>>>>>>>>>>>//
  //               DFMP2               //
  //<<<<<<<<<<<<<<<<<<<<<<<<<<<<<<<<<<<//

   => Loading Basis Set <=

    Name: (STO-3G AUX)
    Role: RIFIT
    Keyword: DF_BASIS_MP2
    atoms 1   entry O          line   406 file /Users/teague/anaconda3/envs/gen_env/share/psi4/basis/def2-qzvpp-ri.gbs 
    atoms 2-3 entry H          line    24 file /Users/teague/anaconda3/envs/gen_env/share/psi4/basis/def2-qzvpp-ri.gbs 

	 --------------------------------------------------------
	                          DF-MP2                         
	      2nd-Order Density-Fitted Moller-Plesset Theory     
	              RMP2 Wavefunction,   1 Threads             
	                                                         
	        Rob Parrish, Justin Turney, Andy Simmonett,      
	           Ed Hohenstein, and C. David Sherrill          
	 --------------------------------------------------------

   => Auxiliary Basis Set <=

  Basis Set: (STO-3G AUX)
    Blend: DEF2-QZVPP-RI
    Number of shells: 65
    Number of basis function: 253
    Number of Cartesian functions: 333
    Spherical Harmonics?: true
    Max angular momentum: 5

	 --------------------------------------------------------
	                 NBF =     7, NAUX =   253
	 --------------------------------------------------------
	   CLASS    FOCC     OCC    AOCC    AVIR     VIR    FVIR
	   PAIRS       0       5       5       2       2       0
	 --------------------------------------------------------

	-----------------------------------------------------------
	 ==================> DF-MP2 Energies <==================== 
	-----------------------------------------------------------
	 Reference Energy          =     -74.9629466565915124 [Eh]
	 Singles Energy            =      -0.0000000000000000 [Eh]
	 Same-Spin Energy          =      -0.0020260259658657 [Eh]
	 Opposite-Spin Energy      =      -0.0334761998297808 [Eh]
	 Correlation Energy        =      -0.0355022257956466 [Eh]
	 Total Energy              =     -74.9984488823871658 [Eh]
	-----------------------------------------------------------
	 ================> DF-SCS-MP2 Energies <================== 
	-----------------------------------------------------------
	 SCS Same-Spin Scale       =       0.3333333333333333 [-]
	 SCS Opposite-Spin Scale   =       1.2000000000000000 [-]
	 SCS Same-Spin Energy      =      -0.0006753419886219 [Eh]
	 SCS Opposite-Spin Energy  =      -0.0401714397957370 [Eh]
	 SCS Correlation Energy    =      -0.0408467817843589 [Eh]
	 SCS Total Energy          =     -75.0037934383758653 [Eh]
	-----------------------------------------------------------


*** tstop() called on trurls-machine at Tue Mar  3 14:50:40 2020
Module time:
	user time   =       0.09 seconds =       0.00 minutes
	system time =       0.00 seconds =       0.00 minutes
	total time  =          0 seconds =       0.00 minutes
Total time:
	user time   =       0.46 seconds =       0.01 minutes
	system time =       0.03 seconds =       0.00 minutes
	total time  =          1 seconds =       0.02 minutes

*** tstart() called on trurls-machine
*** at Tue Mar  3 14:50:40 2020

   => Loading Basis Set <=

    Name: STO-3G
    Role: ORBITAL
    Keyword: BASIS
    atoms 1   entry O          line    81 file /Users/teague/anaconda3/envs/gen_env/share/psi4/basis/sto-3g.gbs 
    atoms 2-3 entry H          line    19 file /Users/teague/anaconda3/envs/gen_env/share/psi4/basis/sto-3g.gbs 


         ---------------------------------------------------------
                                   SCF
               by Justin Turney, Rob Parrish, Andy Simmonett
                          and Daniel G. A. Smith
                              RHF Reference
                        1 Threads,   7629 MiB Core
         ---------------------------------------------------------

  ==> Geometry <==

    Molecular point group: c1
    Full point group: C2v

    Geometry (in Angstrom), charge = 0, multiplicity = 1:

       Center              X                  Y                   Z               Mass       
    ------------   -----------------  -----------------  -----------------  -----------------
         O            0.000000000000     0.000000000000    -0.065582115747    15.994914619570
         H            0.757000000000     0.000000000000     0.520417884253     1.007825032230
         H           -0.757000000000     0.000000000000     0.520417884253     1.007825032230

  Running in c1 symmetry.

  Rotational constants: A =     27.42405  B =     14.59451  C =      9.52533 [cm^-1]
  Rotational constants: A = 822152.21994  B = 437532.48542  C = 285562.17493 [MHz]
  Nuclear repulsion =    9.193913156279891

  Charge       = 0
  Multiplicity = 1
  Electrons    = 10
  Nalpha       = 5
  Nbeta        = 5

  ==> Algorithm <==

  SCF Algorithm Type is PK.
  DIIS enabled.
  MOM disabled.
  Fractional occupation disabled.
  Guess Type is SAD.
  Energy threshold   = 1.00e-06
  Density threshold  = 1.00e-06
  Integral threshold = 0.00e+00

  ==> Primary Basis <==

  Basis Set: STO-3G
    Blend: STO-3G
    Number of shells: 5
    Number of basis function: 7
    Number of Cartesian functions: 7
    Spherical Harmonics?: true
    Max angular momentum: 1

  ==> Pre-Iterations <==

   -------------------------------------------------------
    Irrep   Nso     Nmo     Nalpha   Nbeta   Ndocc  Nsocc
   -------------------------------------------------------
     A          7       7       0       0       0       0
   -------------------------------------------------------
    Total       7       7       5       5       5       0
   -------------------------------------------------------

  ==> Integral Setup <==

  Using in-core PK algorithm.
   Calculation information:
      Number of atoms:                   3
      Number of AO shells:               5
      Number of primitives:             15
      Number of atomic orbitals:         7
      Number of basis functions:         7

      Integral cutoff                 1.00e-12
      Number of threads:                 1

  Performing in-core PK
  Using 812 doubles for integral storage.
  We computed 120 shell quartets total.
  Whereas there are 120 unique shell quartets.

  ==> DiskJK: Disk-Based J/K Matrices <==

    J tasked:                  Yes
    K tasked:                  Yes
    wK tasked:                  No
    Memory [MiB]:             5722
    Schwarz Cutoff:          1E-12

    OpenMP threads:              1

  Minimum eigenvalue in the overlap matrix is 3.4228451120E-01.
  Using Symmetric Orthogonalization.

  SCF Guess: Superposition of Atomic Densities via on-the-fly atomic UHF.

  ==> Iterations <==

                        Total Energy        Delta E     RMS |[F,P]|

   @RHF iter SAD:   -74.22197995633624   -7.42220e+01   0.00000e+00 
   @RHF iter   1:   -74.91362289647299   -6.91643e-01   3.54712e-02 DIIS
   @RHF iter   2:   -74.96202537513733   -4.84025e-02   5.35109e-03 DIIS
   @RHF iter   3:   -74.96287717669340   -8.51802e-04   1.26533e-03 DIIS
   @RHF iter   4:   -74.96294553932108   -6.83626e-05   1.22929e-04 DIIS
   @RHF iter   5:   -74.96294665271569   -1.11339e-06   8.25266e-06 DIIS
   @RHF iter   6:   -74.96294665659151   -3.87583e-09   5.00532e-07 DIIS
  Energy and wave function converged.


  ==> Post-Iterations <==

    Orbital Energies [Eh]
    ---------------------

    Doubly Occupied:                                                      

       1A    -20.241763     2A     -1.268361     3A     -0.617863  
       4A     -0.452999     5A     -0.391243  

    Virtual:                                                              

       6A      0.605576     7A      0.742245  

    Final Occupation by Irrep:
              A 
    DOCC [     5 ]

  @RHF Final Energy:   -74.96294665659151

   => Energetics <=

    Nuclear Repulsion Energy =              9.1939131562798906
    One-Electron Energy =                -122.3692768927921577
    Two-Electron Energy =                  38.2124170799207548
    Total Energy =                        -74.9629466565915124

Computation Completed


Properties will be evaluated at   0.000000,   0.000000,   0.000000 [a0]

Properties computed using the SCF density matrix

  Nuclear Dipole Moment: [e a0]
     X:     0.0000      Y:     0.0000      Z:     0.9754

  Electronic Dipole Moment: [e a0]
     X:     0.0000      Y:     0.0000      Z:    -0.2965

  Dipole Moment: [e a0]
     X:     0.0000      Y:     0.0000      Z:     0.6789     Total:     0.6789

  Dipole Moment: [D]
     X:     0.0000      Y:     0.0000      Z:     1.7257     Total:     1.7257


*** tstop() called on trurls-machine at Tue Mar  3 14:50:40 2020
Module time:
	user time   =       0.16 seconds =       0.00 minutes
	system time =       0.01 seconds =       0.00 minutes
	total time  =          0 seconds =       0.00 minutes
Total time:
	user time   =       0.65 seconds =       0.01 minutes
	system time =       0.04 seconds =       0.00 minutes
	total time  =          1 seconds =       0.02 minutes
 MINTS: Wrapper to libmints.
   by Justin Turney

   Calculation information:
      Number of threads:                 1
      Number of atoms:                   3
      Number of AO shells:               5
      Number of SO shells:               5
      Number of primitives:             15
      Number of atomic orbitals:         7
      Number of basis functions:         7

      Number of irreps:                  1
      Integral cutoff                 0.00e+00
      Number of functions per irrep: [   7 ]

 OEINTS: Overlap, kinetic, potential, dipole, and quadrupole integrals
         stored in file 35.

      Computing two-electron integrals...done
      Computed 231 non-zero two-electron integrals.
        Stored in file 33.


         ---------------------------------------------------------
                          Configuration Interaction
                            (a 'D E T C I' module)

                 C. David Sherrill, Daniel G. A. Smith, and
                              Matt L. Leininger
         ---------------------------------------------------------


   ==> Parameters <==

    EX LEVEL       =        2      H0 BLOCKSIZE  =     1000
    VAL EX LEVEL   =        0      H0 GUESS SIZE =     1000
    H0COUPLINGSIZE =        0      H0 COUPLING   =       NO
    MAXITER        =       24      NUM PRINT     =       20
    NUM ROOTS      =        1      ICORE         =        1
    PRINT LVL      =        1      FCI           =       NO
    R CONV         = 1.00e-06      MIXED         =      YES
    E CONV         = 1.00e-06      MIXED4        =      YES
    R4S            =       NO      REPL OTF      =       NO
    DIAG METHOD    =      SEM      FOLLOW ROOT   =        0
    PRECONDITIONER = DAVIDSON      UPDATE        = DAVIDSON
    S              =   0.0000      Ms0           =      YES
    GUESS VECTOR   =  H0BLOCK      OPENTYPE      =     NONE
    COLLAPSE SIZE  =        1      HD AVG        = EVANGELISTI
    MAX NUM VECS   =       25      REF SYM       =     AUTO
    IOPEN        =       NO

    EX ALLOW       =  1  1 
    STATE AVERAGE  =  0(1.00) 

   ==> CI Orbital and Space information <==

    RAS1 LVL      =        4      A RAS3 MAX    =        2
    RAS1 MIN      =        8      B RAS3 MAX    =        2
    A RAS1 LVL    =        4      RAS4 LVL      =        7
    A RAS1 MIN    =        3      A RAS4 MAX    =        0
    A RAS1 MAX    =        5      B RAS4 MAX    =        0
    B RAS1 LVL    =        4      RAS4 MAX      =        0
    B RAS1 MIN    =        3      A RAS34 MAX   =        2
    B RAS1 MAX    =        5      B RAS34 MAX   =        2
    RAS3 LVL      =        5      RAS34 MAX     =        2
    RAS3 MAX      =        2
   ------------------------------------
               Space    Total     A
   ------------------------------------
                 Nso        7     7
                 Nmo        7     7
               Ndocc        5     5
               Nsocc        0     0
   ------------------------------------
              CI Spaces
   ------------------------------------
        Dropped DOCC        0     0
                RAS1        5     5
                RAS2        0     0
                RAS3        2     2
                RAS4        0     0
      Active (total)        7     7
        Dropped UOCC        0     0
   ------------------------------------

   ==> Setting up CI strings <==

    There are 21 alpha and 21 beta strings
    The CI space requires 141 (1.41E+02) determinants and 6 blocks

   ==> Transforming CI integrals <==

	Presorting SO-basis two-electron integrals.
	Sorting File: SO Ints (nn|nn) nbuckets = 1
	Transforming the one-electron integrals and constructing Fock matrices
	Starting first half-transformation.
	Sorting half-transformed integrals.
	First half integral transformation complete.
	Starting second half-transformation.
	Two-electron integral transformation complete.

   ==> Starting CI iterations <==

    H0 Block Eigenvalue = -75.01173456

    Simultaneous Expansion Method (Block Davidson Method)
    Using 1 initial trial vectors

     Iter   Root       Total Energy       Delta E      C RMS

   @CI  0:     0    -75.011734562933   -8.4206E+01   1.7680E-13  
    Warning: Norm of correction (root 0) is < 1.0E-13
   @CI  1:     0    -75.011734562933   0.0000E+00   1.0256E-12 c

   ==> Energetics <==

    SCF energy =          -74.962946656591512
    Total CI energy =     -75.011734562932972

   ==> CISD root 0 information <==

    CISD Root 0 energy =   -75.011734562932972

   The 20 most important determinants:

    *   1   -0.987199  (    0,    0)  1AX 2AX 3AX 4AX 5AX 
    *   2    0.076079  (    8,    8)  1AX 2AX 4AX 5AX 7AX 
    *   3    0.045939  (    2,    8)  1AX 2AX 3AA 4AB 5AX 6AA 7AB 
    *   4    0.045939  (    8,    2)  1AX 2AX 3AB 4AA 5AX 6AB 7AA 
    *   5    0.044673  (    2,    2)  1AX 2AX 3AX 5AX 6AX 
    *   6    0.042488  (    3,    3)  1AX 2AX 4AX 5AX 6AX 
    *   7    0.040796  (    7,    7)  1AX 2AX 3AX 5AX 7AX 
    *   8    0.033710  (    3,    7)  1AX 2AX 3AB 4AA 5AX 6AA 7AB 
    *   9    0.033710  (    7,    3)  1AX 2AX 3AA 4AB 5AX 6AB 7AA 
    *  10   -0.032362  (    2,    4)  1AX 2AA 3AX 4AB 5AX 6AX 
    *  11   -0.032362  (    4,    2)  1AX 2AB 3AX 4AA 5AX 6AX 
    *  12    0.031690  (    4,    4)  1AX 3AX 4AX 5AX 6AX 
    *  13   -0.030702  (    4,    8)  1AX 2AB 3AA 4AX 5AX 6AA 7AB 
    *  14   -0.030702  (    8,    4)  1AX 2AA 3AB 4AX 5AX 6AB 7AA 
    *  15    0.025469  (    1,    1)  1AX 2AX 3AX 4AX 6AX 
    *  16   -0.020131  (    3,    9)  1AX 2AA 3AB 4AX 5AX 6AA 7AB 
    *  17   -0.020131  (    9,    3)  1AX 2AB 3AA 4AX 5AX 6AB 7AA 
    *  18    0.016285  (    9,    9)  1AX 3AX 4AX 5AX 7AX 
    *  19    0.012379  (    0,    2)  1AX 2AX 3AX 4AA 5AX 6AB 
    *  20    0.012379  (    2,    0)  1AX 2AX 3AX 4AB 5AX 6AA 

		 "A good bug is a dead bug" 

			 - Starship Troopers

		 "I didn't write FORTRAN.  That's the problem."

			 - Edward Valeev

*** tstart() called on trurls-machine
*** at Tue Mar  3 14:50:40 2020

   => Loading Basis Set <=

    Name: STO-3G
    Role: ORBITAL
    Keyword: BASIS
    atoms 1   entry O          line    81 file /Users/teague/anaconda3/envs/gen_env/share/psi4/basis/sto-3g.gbs 
    atoms 2-3 entry H          line    19 file /Users/teague/anaconda3/envs/gen_env/share/psi4/basis/sto-3g.gbs 


         ---------------------------------------------------------
                                   SCF
               by Justin Turney, Rob Parrish, Andy Simmonett
                          and Daniel G. A. Smith
                              RHF Reference
                        1 Threads,   7629 MiB Core
         ---------------------------------------------------------

  ==> Geometry <==

    Molecular point group: c1
    Full point group: C2v

    Geometry (in Angstrom), charge = 0, multiplicity = 1:

       Center              X                  Y                   Z               Mass       
    ------------   -----------------  -----------------  -----------------  -----------------
         O            0.000000000000     0.000000000000    -0.065582115747    15.994914619570
         H            0.757000000000     0.000000000000     0.520417884253     1.007825032230
         H           -0.757000000000     0.000000000000     0.520417884253     1.007825032230

  Running in c1 symmetry.

  Rotational constants: A =     27.42405  B =     14.59451  C =      9.52533 [cm^-1]
  Rotational constants: A = 822152.21994  B = 437532.48542  C = 285562.17493 [MHz]
  Nuclear repulsion =    9.193913156279891

  Charge       = 0
  Multiplicity = 1
  Electrons    = 10
  Nalpha       = 5
  Nbeta        = 5

  ==> Algorithm <==

  SCF Algorithm Type is PK.
  DIIS enabled.
  MOM disabled.
  Fractional occupation disabled.
  Guess Type is SAD.
  Energy threshold   = 1.00e-06
  Density threshold  = 1.00e-06
  Integral threshold = 0.00e+00

  ==> Primary Basis <==

  Basis Set: STO-3G
    Blend: STO-3G
    Number of shells: 5
    Number of basis function: 7
    Number of Cartesian functions: 7
    Spherical Harmonics?: true
    Max angular momentum: 1

  ==> Pre-Iterations <==

   -------------------------------------------------------
    Irrep   Nso     Nmo     Nalpha   Nbeta   Ndocc  Nsocc
   -------------------------------------------------------
     A          7       7       0       0       0       0
   -------------------------------------------------------
    Total       7       7       5       5       5       0
   -------------------------------------------------------

  ==> Integral Setup <==

  Using in-core PK algorithm.
   Calculation information:
      Number of atoms:                   3
      Number of AO shells:               5
      Number of primitives:             15
      Number of atomic orbitals:         7
      Number of basis functions:         7

      Integral cutoff                 1.00e-12
      Number of threads:                 1

  Performing in-core PK
  Using 812 doubles for integral storage.
  We computed 120 shell quartets total.
  Whereas there are 120 unique shell quartets.

  ==> DiskJK: Disk-Based J/K Matrices <==

    J tasked:                  Yes
    K tasked:                  Yes
    wK tasked:                  No
    Memory [MiB]:             5722
    Schwarz Cutoff:          1E-12

    OpenMP threads:              1

  Minimum eigenvalue in the overlap matrix is 3.4228451120E-01.
  Using Symmetric Orthogonalization.

  SCF Guess: Superposition of Atomic Densities via on-the-fly atomic UHF.

  ==> Iterations <==

                        Total Energy        Delta E     RMS |[F,P]|

   @RHF iter SAD:   -74.22197995633624   -7.42220e+01   0.00000e+00 
   @RHF iter   1:   -74.91362289647299   -6.91643e-01   3.54712e-02 DIIS
   @RHF iter   2:   -74.96202537513733   -4.84025e-02   5.35109e-03 DIIS
   @RHF iter   3:   -74.96287717669340   -8.51802e-04   1.26533e-03 DIIS
   @RHF iter   4:   -74.96294553932108   -6.83626e-05   1.22929e-04 DIIS
   @RHF iter   5:   -74.96294665271569   -1.11339e-06   8.25266e-06 DIIS
   @RHF iter   6:   -74.96294665659151   -3.87583e-09   5.00532e-07 DIIS
  Energy and wave function converged.


  ==> Post-Iterations <==

    Orbital Energies [Eh]
    ---------------------

    Doubly Occupied:                                                      

       1A    -20.241763     2A     -1.268361     3A     -0.617863  
       4A     -0.452999     5A     -0.391243  

    Virtual:                                                              

       6A      0.605576     7A      0.742245  

    Final Occupation by Irrep:
              A 
    DOCC [     5 ]

  @RHF Final Energy:   -74.96294665659151

   => Energetics <=

    Nuclear Repulsion Energy =              9.1939131562798906
    One-Electron Energy =                -122.3692768927921577
    Two-Electron Energy =                  38.2124170799207548
    Total Energy =                        -74.9629466565915124

Computation Completed


Properties will be evaluated at   0.000000,   0.000000,   0.000000 [a0]

Properties computed using the SCF density matrix

  Nuclear Dipole Moment: [e a0]
     X:     0.0000      Y:     0.0000      Z:     0.9754

  Electronic Dipole Moment: [e a0]
     X:     0.0000      Y:     0.0000      Z:    -0.2965

  Dipole Moment: [e a0]
     X:     0.0000      Y:     0.0000      Z:     0.6789     Total:     0.6789

  Dipole Moment: [D]
     X:     0.0000      Y:     0.0000      Z:     1.7257     Total:     1.7257


*** tstop() called on trurls-machine at Tue Mar  3 14:50:40 2020
Module time:
	user time   =       0.16 seconds =       0.00 minutes
	system time =       0.00 seconds =       0.00 minutes
	total time  =          0 seconds =       0.00 minutes
Total time:
	user time   =       0.85 seconds =       0.01 minutes
	system time =       0.06 seconds =       0.00 minutes
	total time  =          1 seconds =       0.02 minutes
 MINTS: Wrapper to libmints.
   by Justin Turney

   Calculation information:
      Number of threads:                 1
      Number of atoms:                   3
      Number of AO shells:               5
      Number of SO shells:               5
      Number of primitives:             15
      Number of atomic orbitals:         7
      Number of basis functions:         7

      Number of irreps:                  1
      Integral cutoff                 0.00e+00
      Number of functions per irrep: [   7 ]

 OEINTS: Overlap, kinetic, potential, dipole, and quadrupole integrals
         stored in file 35.

      Computing two-electron integrals...done
      Computed 231 non-zero two-electron integrals.
        Stored in file 33.


         ---------------------------------------------------------
                          Configuration Interaction
                            (a 'D E T C I' module)

                 C. David Sherrill, Daniel G. A. Smith, and
                              Matt L. Leininger
         ---------------------------------------------------------


   ==> Parameters <==

    EX LEVEL       =       10      H0 BLOCKSIZE  =     1000
    VAL EX LEVEL   =        0      H0 GUESS SIZE =     1000
    H0COUPLINGSIZE =        0      H0 COUPLING   =       NO
    MAXITER        =       24      NUM PRINT     =       20
    NUM ROOTS      =        1      ICORE         =        1
    PRINT LVL      =        1      FCI           =      YES
    R CONV         = 1.00e-06      MIXED         =      YES
    E CONV         = 1.00e-06      MIXED4        =      YES
    R4S            =       NO      REPL OTF      =       NO
    DIAG METHOD    =      SEM      FOLLOW ROOT   =        0
    PRECONDITIONER = DAVIDSON      UPDATE        = DAVIDSON
    S              =   0.0000      Ms0           =      YES
    GUESS VECTOR   =  H0BLOCK      OPENTYPE      =     NONE
    COLLAPSE SIZE  =        1      HD AVG        = EVANGELISTI
    MAX NUM VECS   =       25      REF SYM       =     AUTO
    IOPEN        =       NO

    EX ALLOW       =  1  1  1  1  1  1  1  1  1  1 
    STATE AVERAGE  =  0(1.00) 

   ==> CI Orbital and Space information <==

   ------------------------------------
               Space    Total     A
   ------------------------------------
                 Nso        7     7
                 Nmo        7     7
               Ndocc        5     5
               Nsocc        0     0
   ------------------------------------
              CI Spaces
   ------------------------------------
        Dropped DOCC        0     0
              Active        7     7
        Dropped UOCC        0     0
   ------------------------------------

   ==> Setting up CI strings <==

    There are 21 alpha and 21 beta strings
    The CI space requires 441 (4.41E+02) determinants and 1 blocks

   ==> Transforming CI integrals <==

	Presorting SO-basis two-electron integrals.
	Sorting File: SO Ints (nn|nn) nbuckets = 1
	Transforming the one-electron integrals and constructing Fock matrices
	Starting first half-transformation.
	Sorting half-transformed integrals.
	First half integral transformation complete.
	Starting second half-transformation.
	Two-electron integral transformation complete.

   ==> Starting CI iterations <==

    H0 Block Eigenvalue = -75.01243743

    Simultaneous Expansion Method (Block Davidson Method)
    Using 1 initial trial vectors

     Iter   Root       Total Energy       Delta E      C RMS

   @CI  0:     0    -75.012437432617   -8.4206E+01   2.9798E-13  
    Warning: Norm of correction (root 0) is < 1.0E-13
   @CI  1:     0    -75.012437432617   1.4211E-14   1.6948E-12 c

   ==> Energetics <==

    SCF energy =          -74.962946656591512
    Total CI energy =     -75.012437432617290

   ==> FCI root 0 information <==

    FCI Root 0 energy =   -75.012437432617290

   The 20 most important determinants:

    *   1   -0.986716  (    0,    0)  1AX 2AX 3AX 4AX 5AX 
    *   2    0.076963  (    8,    8)  1AX 2AX 4AX 5AX 7AX 
    *   3    0.046583  (    2,    8)  1AX 2AX 3AA 4AB 5AX 6AA 7AB 
    *   4    0.046583  (    8,    2)  1AX 2AX 3AB 4AA 5AX 6AB 7AA 
    *   5    0.045626  (    2,    2)  1AX 2AX 3AX 5AX 6AX 
    *   6    0.043170  (    3,    3)  1AX 2AX 4AX 5AX 6AX 
    *   7    0.041318  (    7,    7)  1AX 2AX 3AX 5AX 7AX 
    *   8    0.034185  (    3,    7)  1AX 2AX 3AB 4AA 5AX 6AA 7AB 
    *   9    0.034185  (    7,    3)  1AX 2AX 3AA 4AB 5AX 6AB 7AA 
    *  10   -0.032960  (    2,    4)  1AX 2AA 3AX 4AB 5AX 6AX 
    *  11   -0.032960  (    4,    2)  1AX 2AB 3AX 4AA 5AX 6AX 
    *  12    0.031786  (    4,    4)  1AX 3AX 4AX 5AX 6AX 
    *  13   -0.031097  (    4,    8)  1AX 2AB 3AA 4AX 5AX 6AA 7AB 
    *  14   -0.031097  (    8,    4)  1AX 2AA 3AB 4AX 5AX 6AB 7AA 
    *  15    0.026698  (    1,    1)  1AX 2AX 3AX 4AX 6AX 
    *  16   -0.020295  (    3,    9)  1AX 2AA 3AB 4AX 5AX 6AA 7AB 
    *  17   -0.020295  (    9,    3)  1AX 2AB 3AA 4AX 5AX 6AB 7AA 
    *  18    0.016462  (    9,    9)  1AX 3AX 4AX 5AX 7AX 
    *  19    0.012536  (    0,    2)  1AX 2AX 3AX 4AA 5AX 6AB 
    *  20    0.012536  (    2,    0)  1AX 2AX 3AX 4AB 5AX 6AA 

		 "A good bug is a dead bug" 

			 - Starship Troopers

		 "I didn't write FORTRAN.  That's the problem."

			 - Edward Valeev

*** tstart() called on trurls-machine
*** at Tue Mar  3 14:50:40 2020

   => Loading Basis Set <=

    Name: STO-3G
    Role: ORBITAL
    Keyword: BASIS
    atoms 1   entry O          line    81 file /Users/teague/anaconda3/envs/gen_env/share/psi4/basis/sto-3g.gbs 
    atoms 2-3 entry H          line    19 file /Users/teague/anaconda3/envs/gen_env/share/psi4/basis/sto-3g.gbs 


         ---------------------------------------------------------
                                   SCF
               by Justin Turney, Rob Parrish, Andy Simmonett
                          and Daniel G. A. Smith
                              RHF Reference
                        1 Threads,   7629 MiB Core
         ---------------------------------------------------------

  ==> Geometry <==

    Molecular point group: c1
    Full point group: C2v

    Geometry (in Angstrom), charge = 0, multiplicity = 1:

       Center              X                  Y                   Z               Mass       
    ------------   -----------------  -----------------  -----------------  -----------------
         O            0.000000000000     0.000000000000    -0.065582115747    15.994914619570
         H            0.757000000000     0.000000000000     0.520417884253     1.007825032230
         H           -0.757000000000     0.000000000000     0.520417884253     1.007825032230

  Running in c1 symmetry.

  Rotational constants: A =     27.42405  B =     14.59451  C =      9.52533 [cm^-1]
  Rotational constants: A = 822152.21994  B = 437532.48542  C = 285562.17493 [MHz]
  Nuclear repulsion =    9.193913156279891

  Charge       = 0
  Multiplicity = 1
  Electrons    = 10
  Nalpha       = 5
  Nbeta        = 5

  ==> Algorithm <==

  SCF Algorithm Type is PK.
  DIIS enabled.
  MOM disabled.
  Fractional occupation disabled.
  Guess Type is SAD.
  Energy threshold   = 1.00e-06
  Density threshold  = 1.00e-06
  Integral threshold = 0.00e+00

  ==> Primary Basis <==

  Basis Set: STO-3G
    Blend: STO-3G
    Number of shells: 5
    Number of basis function: 7
    Number of Cartesian functions: 7
    Spherical Harmonics?: true
    Max angular momentum: 1

  ==> Pre-Iterations <==

   -------------------------------------------------------
    Irrep   Nso     Nmo     Nalpha   Nbeta   Ndocc  Nsocc
   -------------------------------------------------------
     A          7       7       0       0       0       0
   -------------------------------------------------------
    Total       7       7       5       5       5       0
   -------------------------------------------------------

  ==> Integral Setup <==

  Using in-core PK algorithm.
   Calculation information:
      Number of atoms:                   3
      Number of AO shells:               5
      Number of primitives:             15
      Number of atomic orbitals:         7
      Number of basis functions:         7

      Integral cutoff                 1.00e-12
      Number of threads:                 1

  Performing in-core PK
  Using 812 doubles for integral storage.
  We computed 120 shell quartets total.
  Whereas there are 120 unique shell quartets.

  ==> DiskJK: Disk-Based J/K Matrices <==

    J tasked:                  Yes
    K tasked:                  Yes
    wK tasked:                  No
    Memory [MiB]:             5722
    Schwarz Cutoff:          1E-12

    OpenMP threads:              1

  Minimum eigenvalue in the overlap matrix is 3.4228451120E-01.
  Using Symmetric Orthogonalization.

  SCF Guess: Superposition of Atomic Densities via on-the-fly atomic UHF.

  ==> Iterations <==

                        Total Energy        Delta E     RMS |[F,P]|

   @RHF iter SAD:   -74.22197995633624   -7.42220e+01   0.00000e+00 
   @RHF iter   1:   -74.91362289647299   -6.91643e-01   3.54712e-02 DIIS
   @RHF iter   2:   -74.96202537513733   -4.84025e-02   5.35109e-03 DIIS
   @RHF iter   3:   -74.96287717669340   -8.51802e-04   1.26533e-03 DIIS
   @RHF iter   4:   -74.96294553932108   -6.83626e-05   1.22929e-04 DIIS
   @RHF iter   5:   -74.96294665271569   -1.11339e-06   8.25266e-06 DIIS
   @RHF iter   6:   -74.96294665659151   -3.87583e-09   5.00532e-07 DIIS
  Energy and wave function converged.


  ==> Post-Iterations <==

    Orbital Energies [Eh]
    ---------------------

    Doubly Occupied:                                                      

       1A    -20.241763     2A     -1.268361     3A     -0.617863  
       4A     -0.452999     5A     -0.391243  

    Virtual:                                                              

       6A      0.605576     7A      0.742245  

    Final Occupation by Irrep:
              A 
    DOCC [     5 ]

  @RHF Final Energy:   -74.96294665659151

   => Energetics <=

    Nuclear Repulsion Energy =              9.1939131562798906
    One-Electron Energy =                -122.3692768927921577
    Two-Electron Energy =                  38.2124170799207548
    Total Energy =                        -74.9629466565915124

Computation Completed


Properties will be evaluated at   0.000000,   0.000000,   0.000000 [a0]

Properties computed using the SCF density matrix

  Nuclear Dipole Moment: [e a0]
     X:     0.0000      Y:     0.0000      Z:     0.9754

  Electronic Dipole Moment: [e a0]
     X:     0.0000      Y:     0.0000      Z:    -0.2965

  Dipole Moment: [e a0]
     X:     0.0000      Y:     0.0000      Z:     0.6789     Total:     0.6789

  Dipole Moment: [D]
     X:     0.0000      Y:     0.0000      Z:     1.7257     Total:     1.7257


*** tstop() called on trurls-machine at Tue Mar  3 14:50:41 2020
Module time:
	user time   =       0.16 seconds =       0.00 minutes
	system time =       0.01 seconds =       0.00 minutes
	total time  =          1 seconds =       0.02 minutes
Total time:
	user time   =       1.11 seconds =       0.02 minutes
	system time =       0.09 seconds =       0.00 minutes
	total time  =          2 seconds =       0.03 minutes
 MINTS: Wrapper to libmints.
   by Justin Turney

   Calculation information:
      Number of threads:                 1
      Number of atoms:                   3
      Number of AO shells:               5
      Number of SO shells:               5
      Number of primitives:             15
      Number of atomic orbitals:         7
      Number of basis functions:         7

      Number of irreps:                  1
      Integral cutoff                 0.00e+00
      Number of functions per irrep: [   7 ]

 OEINTS: Overlap, kinetic, potential, dipole, and quadrupole integrals
         stored in file 35.

      Computing two-electron integrals...done
      Computed 231 non-zero two-electron integrals.
        Stored in file 33.


*** tstart() called on trurls-machine
*** at Tue Mar  3 14:50:41 2020


	Wfn Parameters:
	--------------------
	Wavefunction         = CCSD
	Number of irreps     = 1
	Number of MOs        = 7
	Number of active MOs = 7
	AO-Basis             = NONE
	Semicanonical        = false
	Reference            = RHF
	Print Level          = 1

	IRREP	# MOs	# FZDC	# DOCC	# SOCC	# VIRT	# FZVR
	-----	-----	------	------	------	------	------
	 A	   7	    0	    5	    0	    2	    0
	Transforming integrals...
	IWL integrals will be deleted.
	(OO|OO)...
	Presorting SO-basis two-electron integrals.
	Sorting File: SO Ints (nn|nn) nbuckets = 1
	Transforming the one-electron integrals and constructing Fock matrices
	Starting first half-transformation.
	Sorting half-transformed integrals.
	First half integral transformation complete.
	Starting second half-transformation.
	Two-electron integral transformation complete.
	(OO|OV)...
	Starting second half-transformation.
	Two-electron integral transformation complete.
	(OO|VV)...
	Starting second half-transformation.
	Two-electron integral transformation complete.
	(OV|OO)...
	Starting first half-transformation.
	Sorting half-transformed integrals.
	First half integral transformation complete.
	Starting second half-transformation.
	Two-electron integral transformation complete.
	(OV|OV)...
	Starting second half-transformation.
	Two-electron integral transformation complete.
	(OV|VV)...
	Starting second half-transformation.
	Two-electron integral transformation complete.
	(VV|OO)...
	Starting first half-transformation.
	Sorting half-transformed integrals.
	First half integral transformation complete.
	Starting second half-transformation.
	Two-electron integral transformation complete.
	(VV|OV)...
	Starting second half-transformation.
	Two-electron integral transformation complete.
	(VV|VV)...
	Starting second half-transformation.
	Two-electron integral transformation complete.
	Frozen core energy     =      0.00000000000000

	Size of irrep 0 of <ab|cd> integrals:      0.000 (MW) /      0.000 (MB)
	Total:                                     0.000 (MW) /      0.000 (MB)

	Size of irrep 0 of <ia|bc> integrals:      0.000 (MW) /      0.000 (MB)
	Total:                                     0.000 (MW) /      0.000 (MB)

	Size of irrep 0 of tijab amplitudes:       0.000 (MW) /      0.001 (MB)
	Total:                                     0.000 (MW) /      0.001 (MB)

	Nuclear Rep. energy          =      9.19391315627989
	SCF energy                   =    -74.96294665659151
	One-electron energy          =   -122.36926204873940
	Two-electron energy          =     38.21240223585376
	Reference energy             =    -74.96294665660575

*** tstop() called on trurls-machine at Tue Mar  3 14:50:41 2020
Module time:
	user time   =       0.00 seconds =       0.00 minutes
	system time =       0.03 seconds =       0.00 minutes
	total time  =          0 seconds =       0.00 minutes
Total time:
	user time   =       1.12 seconds =       0.02 minutes
	system time =       0.13 seconds =       0.00 minutes
	total time  =          2 seconds =       0.03 minutes
            **************************
            *                        *
            *        CCENERGY        *
            *                        *
            **************************

    Nuclear Rep. energy (wfn)     =    9.193913156279891
    SCF energy          (wfn)     =  -74.962946656591512
    Reference energy    (file100) =  -74.962946656605752

    Input parameters:
    -----------------
    Wave function   =     CCSD
    Reference wfn   =     RHF
    Brueckner       =     No
    Memory (Mbytes) =     8000.0
    Maxiter         =   1000000
    R_Convergence   =     1.0e-06
    E_Convergence   =     1.0e-06
    Restart         =     Yes
    DIIS            =     Yes
    AO Basis        =     NONE
    ABCD            =     NEW
    Cache Level     =     2
    Cache Type      =     LOW
    Print Level     =     1
    Num. of threads =     1
    # Amps to Print =     1000000
    Print MP2 Amps? =     No
    Analyze T2 Amps =     No
    Print Pair Ener =     No
    Local CC        =     No
    SCS-MP2         =     False
    SCSN-MP2        =     False
    SCS-CCSD        =     False

MP2 correlation energy -0.0355028527417717
                Solving CC Amplitude Equations
                ------------------------------
  Iter             Energy              RMS        T1Diag      D1Diag    New D1Diag    D2Diag
  ----     ---------------------    ---------   ----------  ----------  ----------   --------
     0        -0.035502852741772    0.000e+00    0.000000    0.000000    0.000000    0.080331
     1        -0.044842703616873    3.359e-02    0.002072    0.005934    0.005934    0.102542
     2        -0.049250293754727    1.225e-02    0.003745    0.011195    0.011195    0.113780
     3        -0.049366059865652    1.700e-03    0.004181    0.012766    0.012766    0.114375
     4        -0.049378093720672    3.951e-04    0.004309    0.013223    0.013223    0.114438
     5        -0.049373783142186    4.731e-05    0.004322    0.013269    0.013269    0.114429
     6        -0.049374594817955    7.591e-06    0.004324    0.013275    0.013275    0.114433
     7        -0.049374374742547    1.569e-06    0.004324    0.013275    0.013275    0.114432
     8        -0.049374393571281    2.740e-07    0.004324    0.013275    0.013275    0.114432

    Iterations converged.


    Largest TIA Amplitudes:
              3   0         0.0132741195
              2   1        -0.0032748110
              1   0        -0.0001742259
              0   0         0.0000310777

    Largest TIjAb Amplitudes:
      2   2   1   1        -0.0779834835
      2   3   1   0         0.0471852072
      3   2   0   1         0.0471852072
      3   3   0   0        -0.0463813677
      2   2   0   0        -0.0435217616
      3   3   1   1        -0.0419574200
      2   3   0   1         0.0346733855
      3   2   1   0         0.0346733855
      1   3   0   0         0.0331831874
      3   1   0   0         0.0331831874
      1   1   0   0        -0.0323634879
      1   2   0   1        -0.0313749182
      2   1   1   0        -0.0313749182
      4   4   0   0        -0.0261215374
      1   2   1   0        -0.0205746922
      2   1   0   1        -0.0205746922
      1   1   1   1        -0.0166059434
      4   4   1   1        -0.0106031682
      1   3   1   1        -0.0036366854
      3   1   1   1        -0.0036366854
      0   1   1   1         0.0007331273
      1   0   1   1         0.0007331273
      0   0   0   0        -0.0006514191
      0   3   1   1         0.0005219926
      3   0   1   1         0.0005219926
      0   0   1   1        -0.0004261058
      0   1   0   0         0.0002844455
      1   0   0   0         0.0002844455
      0   2   0   1        -0.0002481176
      2   0   1   0        -0.0002481176
      0   2   1   0         0.0002360383
      2   0   0   1         0.0002360383
      0   3   0   0        -0.0001187553
      3   0   0   0        -0.0001187553

    SCF energy       (wfn)                    =  -74.962946656591512
    Reference energy (file100)                =  -74.962946656605752

    Opposite-spin MP2 correlation energy      =   -0.033476831034719
    Same-spin MP2 correlation energy          =   -0.002026021707053
    MP2 correlation energy                    =   -0.035502852741772
      * MP2 total energy                      =  -74.998449509347523

    Opposite-spin CCSD correlation energy     =   -0.047622032952247
    Same-spin CCSD correlation energy         =   -0.001752360619034
    CCSD correlation energy                   =   -0.049374393571281
      * CCSD total energy                     =  -75.012321050177036


    Psi4 stopped on: Tuesday, 03 March 2020 02:50PM
    Psi4 wall time for execution: 0:00:02.15

*** Psi4 exiting successfully. Buy a developer a beer!
