
    -----------------------------------------------------------------------
          Psi4: An Open-Source Ab Initio Electronic Structure Package
                               Psi4 1.3.2 release

                         Git: Rev {HEAD} ecbda83 


    R. M. Parrish, L. A. Burns, D. G. A. Smith, A. C. Simmonett,
    A. E. DePrince III, E. G. Hohenstein, U. Bozkaya, A. Yu. Sokolov,
    R. Di Remigio, R. M. Richard, J. F. Gonthier, A. M. James,
    H. R. McAlexander, A. Kumar, M. Saitow, X. Wang, B. P. Pritchard,
    P. Verma, H. F. Schaefer III, K. Patkowski, R. A. King, E. F. Valeev,
    F. A. Evangelista, J. M. Turney, T. D. Crawford, and C. D. Sherrill,
    J. Chem. Theory Comput. 13(7) pp 3185--3197 (2017).
    (doi: 10.1021/acs.jctc.7b00174)


                         Additional Contributions by
    P. Kraus, H. Kruse, M. H. Lechner, M. C. Schieber, R. A. Shaw,
    A. Alenaizan, R. Galvelis, Z. L. Glick, S. Lehtola, and J. P. Misiewicz

    -----------------------------------------------------------------------


    Psi4 started on: Thursday, 05 March 2020 01:00PM

    Process ID: 67398
    Host:       trurls-machine
    PSIDATADIR: /Users/teague/anaconda3/envs/gen_env/share/psi4
    Memory:     500.0 MiB
    Threads:    1
    
  ==> Input File <==

--------------------------------------------------------------------------
"""This is a template for psi4 input format."""
import numpy
import sys

from openfermion.config import *
from openfermion.hamiltonians import MolecularData
from openfermion.ops import general_basis_change

from numpy import array

sys.path.append('/Users/teague/.local/lib/python3.7/site-packages/openfermionpsi4')
from _psi4_conversion_functions import *


# Set memory that job can use in megabytes.
memory 8000 mb

# Initialize molecular data.
_description = 'NIST'
if _description == 'None':
    _description = None
molecule = MolecularData([('Cl', (18.9766, 0.0, 0.0)), ('H', (17.6874, 0.0, 0.0))],
                         'sto-3g',
                         1,
                         0,
                         _description,
                          filename='molecule_data/HCl_sto-3g_singlet_NIST')

# Set molecular geometry and symmetry.
molecule mol {
Cl 18.9766 0.0 0.0
H 17.6874 0.0 0.0
symmetry c1
}
mol.set_multiplicity(1)
mol.set_molecular_charge(0)

# Set reference and guess.
if molecule.multiplicity == 1:
    set reference rhf
    set guess sad
else:
    set reference rohf
    set guess gwh

# Set global parameters of calculation.
set globals {
    basis sto-3g
    freeze_core false
    fail_on_maxiter True
    df_scf_guess false
    opdm true
    tpdm true
    soscf false
    scf_type pk
    maxiter 1e6
    num_amps_print 1e6
    r_convergence 1e-6
    d_convergence 1e-6
    e_convergence 1e-6
    ints_tolerance EQUALITY_TOLERANCE
    damping_percentage 0
}

# Run self-consistent field (SCF) calculation.
if True:
    try:
        hf_energy, hf_wavefunction = energy('scf', return_wfn=True)
        if False:
            print('Hartree-Fock energy for {} ({} electrons) is {}.'.format(
                molecule.name, molecule.n_electrons, hf_energy))
    except:
        if False:
            print('WARNING: SCF calculation failed.')
        else:
            raise
    finally:
        # Get orbitals and Fock matrix.
        molecule.hf_energy = hf_energy
        molecule.nuclear_repulsion = mol.nuclear_repulsion_energy()
        molecule.canonical_orbitals = numpy.asarray(hf_wavefunction.Ca())
        molecule.overlap_integrals = numpy.asarray(hf_wavefunction.S())
        molecule.n_orbitals = molecule.canonical_orbitals.shape[0]
        molecule.n_qubits = 2 * molecule.n_orbitals
        molecule.orbital_energies = numpy.asarray(hf_wavefunction.epsilon_a())
        molecule.fock_matrix = numpy.asarray(hf_wavefunction.Fa())

        # Get integrals using MintsHelper.
        mints = MintsHelper(hf_wavefunction.basisset())
        molecule.one_body_integrals = general_basis_change(
            numpy.asarray(mints.ao_kinetic()), molecule.canonical_orbitals, (1, 0))
        molecule.one_body_integrals += general_basis_change(
            numpy.asarray(mints.ao_potential()), molecule.canonical_orbitals, (1, 0))
        two_body_integrals = numpy.asarray(mints.ao_eri())
        two_body_integrals.reshape((molecule.n_orbitals, molecule.n_orbitals,
                                    molecule.n_orbitals, molecule.n_orbitals))
        two_body_integrals = numpy.einsum('psqr', two_body_integrals)
        two_body_integrals = general_basis_change(
            two_body_integrals, molecule.canonical_orbitals, (1, 1, 0, 0))
        molecule.two_body_integrals = two_body_integrals
        molecule.save()


# Perform MP2 energy calculation if there are at least two electrons.
if True:
    try:
        assert molecule.n_electrons > 1
        mp2_energy = energy('mp2')
        if False:
            print('MP2 energy for {} ({} electrons) is {}.'.format(
                molecule.name, molecule.n_electrons, mp2_energy))
    except:
        if False:
            print('WARNING: MP2 calculation failed.')
        else:
            raise
    else:
        molecule.mp2_energy = mp2_energy
        molecule.save()


# Perform configuration interaction singles and doubles (CISD) calculation.
if True:
    set qc_module detci
    try:
        cisd_energy, cisd_wavefunction = energy('cisd', return_wfn=True)
        if False:
            print('CISD energy for {} ({} electrons) is {}.'.format(
                molecule.name, molecule.n_electrons, cisd_energy))
    except:
        if False:
            print('WARNING: CISD calculation failed.')
        else:
            raise
    else:
        # For the functions below, "a" and "b" refer to "up and "down" spins.
        molecule.cisd_energy = cisd_energy

        # Get 1-RDM from CISD calculation.
        cisd_one_rdm_a = numpy.array(cisd_wavefunction.get_opdm(
            0, 0, 'A', True)).reshape(molecule.n_orbitals, molecule.n_orbitals)
        cisd_one_rdm_b = numpy.array(cisd_wavefunction.get_opdm(
            0, 0, 'B', True)).reshape(molecule.n_orbitals, molecule.n_orbitals)

        # Get 2-RDM from CISD calculation.
        cisd_two_rdm_aa = numpy.array(cisd_wavefunction.get_tpdm(
            'AA', False)).reshape(molecule.n_orbitals, molecule.n_orbitals,
                                  molecule.n_orbitals, molecule.n_orbitals)
        cisd_two_rdm_ab = numpy.array(cisd_wavefunction.get_tpdm(
            'AB', False)).reshape(molecule.n_orbitals, molecule.n_orbitals,
                                  molecule.n_orbitals, molecule.n_orbitals)
        cisd_two_rdm_bb = numpy.array(cisd_wavefunction.get_tpdm(
            'BB', False)).reshape(molecule.n_orbitals, molecule.n_orbitals,
                                  molecule.n_orbitals, molecule.n_orbitals)

        # Get overall RDMs.
        cisd_one_rdm, cisd_two_rdm = unpack_spatial_rdm(
            cisd_one_rdm_a, cisd_one_rdm_b, cisd_two_rdm_aa,
            cisd_two_rdm_ab, cisd_two_rdm_bb)

        # Store 1-RDM in molecule file, 2-RDM separately in other file.
        molecule.cisd_one_rdm = cisd_one_rdm
        molecule.cisd_two_rdm = cisd_two_rdm
        molecule.save()


# Perform exact diagonalization.
if True:
    set qc_module detci
    try:
        fci_energy, fci_wavefunction = energy('fci', return_wfn=True)
        if False:
            print('FCI energy for {} ({} electrons) is {}.'.format(
                molecule.name, molecule.n_electrons, fci_energy))
    except:
        if False:
            print('WARNING: FCI calculation failed.')
        else:
            raise
    finally:
        # For the functions below, "a" and "b" refer to "up and "down" spins.
        molecule.fci_energy = fci_energy

        # Get 1-RDM from FCI calculation.
        fci_one_rdm_a = numpy.array(fci_wavefunction.get_opdm(
            0, 0, 'A', True)).reshape(molecule.n_orbitals, molecule.n_orbitals)
        fci_one_rdm_b = numpy.array(fci_wavefunction.get_opdm(
            0, 0, 'B', True)).reshape(molecule.n_orbitals, molecule.n_orbitals)

        # Get 2-RDM from FCI calculation.
        fci_two_rdm_aa = numpy.array(fci_wavefunction.get_tpdm(
            'AA', False)).reshape(molecule.n_orbitals, molecule.n_orbitals,
                                  molecule.n_orbitals, molecule.n_orbitals)
        fci_two_rdm_ab = numpy.array(fci_wavefunction.get_tpdm(
            'AB', False)).reshape(molecule.n_orbitals, molecule.n_orbitals,
                                  molecule.n_orbitals, molecule.n_orbitals)
        fci_two_rdm_bb = numpy.array(fci_wavefunction.get_tpdm(
            'BB', False)).reshape(molecule.n_orbitals, molecule.n_orbitals,
                                  molecule.n_orbitals, molecule.n_orbitals)

        # Get overall RDMs.
        fci_one_rdm, fci_two_rdm = unpack_spatial_rdm(
            fci_one_rdm_a, fci_one_rdm_b,
            fci_two_rdm_aa, fci_two_rdm_ab, fci_two_rdm_bb)

        # Store 1-RDM in molecule file, 2-RDM separately in other file.
        molecule.fci_one_rdm = fci_one_rdm
        molecule.fci_two_rdm = fci_two_rdm
        molecule.save()


# Perform coupled cluster singles and doubles (CCSD) calculation.
if True:
    set qc_module ccenergy
    try:
        ccsd_energy = energy('ccsd')
        if False:
            print('CCSD energy for {} ({} electrons) is {}.'.format(
                molecule.name, molecule.n_electrons, ccsd_energy))
    except:
        if False:
            print('WARNING: CCSD calculation failed.')
        else:
            raise
    else:
        molecule.ccsd_energy = ccsd_energy

        # Merge CC amplitudes into molecule by parsing
        psi_filename = outfile_name()
        single_cc_amplitudes, double_cc_amplitudes = (
            parse_psi4_ccsd_amplitudes(
                2 * molecule.n_orbitals,
                molecule.get_n_alpha_electrons(),
                molecule.get_n_beta_electrons(),
                psi_filename))

        molecule.ccsd_single_amps = single_cc_amplitudes
        molecule.ccsd_double_amps = double_cc_amplitudes
        molecule.save()
--------------------------------------------------------------------------

  Memory set to   7.451 GiB by Python driver.

*** tstart() called on trurls-machine
*** at Thu Mar  5 13:00:07 2020

   => Loading Basis Set <=

    Name: STO-3G
    Role: ORBITAL
    Keyword: BASIS
    atoms 1 entry CL         line   195 file /Users/teague/anaconda3/envs/gen_env/share/psi4/basis/sto-3g.gbs 
    atoms 2 entry H          line    19 file /Users/teague/anaconda3/envs/gen_env/share/psi4/basis/sto-3g.gbs 


         ---------------------------------------------------------
                                   SCF
               by Justin Turney, Rob Parrish, Andy Simmonett
                          and Daniel G. A. Smith
                              RHF Reference
                        1 Threads,   7629 MiB Core
         ---------------------------------------------------------

  ==> Geometry <==

    Molecular point group: c1
    Full point group: C_inf_v

    Geometry (in Angstrom), charge = 0, multiplicity = 1:

       Center              X                  Y                   Z               Mass       
    ------------   -----------------  -----------------  -----------------  -----------------
         CL           0.000000000000     0.000000000000     0.036114730823    34.968852682000
         H            0.000000000000     0.000000000000    -1.253085269177     1.007825032230

  Running in c1 symmetry.

  Rotational constants: A = ************  B =     10.35405  C =     10.35405 [cm^-1]
  Rotational constants: A = ************  B = 310406.73576  C = 310406.73576 [MHz]
  Nuclear repulsion =    6.977980593693751

  Charge       = 0
  Multiplicity = 1
  Electrons    = 18
  Nalpha       = 9
  Nbeta        = 9

  ==> Algorithm <==

  SCF Algorithm Type is PK.
  DIIS enabled.
  MOM disabled.
  Fractional occupation disabled.
  Guess Type is SAD.
  Energy threshold   = 1.00e-06
  Density threshold  = 1.00e-06
  Integral threshold = 0.00e+00

  ==> Primary Basis <==

  Basis Set: STO-3G
    Blend: STO-3G
    Number of shells: 6
    Number of basis function: 10
    Number of Cartesian functions: 10
    Spherical Harmonics?: true
    Max angular momentum: 1

  ==> Pre-Iterations <==

   -------------------------------------------------------
    Irrep   Nso     Nmo     Nalpha   Nbeta   Ndocc  Nsocc
   -------------------------------------------------------
     A         10      10       0       0       0       0
   -------------------------------------------------------
    Total      10      10       9       9       9       0
   -------------------------------------------------------

  ==> Integral Setup <==

  Using in-core PK algorithm.
   Calculation information:
      Number of atoms:                   2
      Number of AO shells:               6
      Number of primitives:             18
      Number of atomic orbitals:        10
      Number of basis functions:        10

      Integral cutoff                 1.00e-12
      Number of threads:                 1

  Performing in-core PK
  Using 3080 doubles for integral storage.
  We computed 231 shell quartets total.
  Whereas there are 231 unique shell quartets.

  ==> DiskJK: Disk-Based J/K Matrices <==

    J tasked:                  Yes
    K tasked:                  Yes
    wK tasked:                  No
    Memory [MiB]:             5722
    Schwarz Cutoff:          1E-12

    OpenMP threads:              1

  Minimum eigenvalue in the overlap matrix is 3.6552516931E-01.
  Using Symmetric Orthogonalization.

  SCF Guess: Superposition of Atomic Densities via on-the-fly atomic UHF.

  ==> Iterations <==

                        Total Energy        Delta E     RMS |[F,P]|

   @RHF iter SAD:  -454.82190483205164   -4.54822e+02   0.00000e+00 
   @RHF iter   1:  -455.11061282737012   -2.88708e-01   1.45243e-02 DIIS
   @RHF iter   2:  -455.13530003943248   -2.46872e-02   1.50250e-03 DIIS
   @RHF iter   3:  -455.13555551232554   -2.55473e-04   6.69572e-05 DIIS
   @RHF iter   4:  -455.13555582807834   -3.15753e-07   8.57490e-06 DIIS
   @RHF iter   5:  -455.13555583491245   -6.83411e-09   3.77055e-07 DIIS
  Energy and wave function converged.


  ==> Post-Iterations <==

    Orbital Energies [Eh]
    ---------------------

    Doubly Occupied:                                                      

       1A   -103.721116     2A    -10.402555     3A     -7.847329  
       4A     -7.840762     5A     -7.840762     6A     -1.040063  
       7A     -0.561267     8A     -0.422039     9A     -0.422039  

    Virtual:                                                              

      10A      0.394131  

    Final Occupation by Irrep:
              A 
    DOCC [     9 ]

  @RHF Final Energy:  -455.13555583491245

   => Energetics <=

    Nuclear Repulsion Energy =              6.9779805936937507
    One-Electron Energy =                -644.0311837104405868
    Two-Electron Energy =                 181.9176472818344621
    Total Energy =                       -455.1355558349124522

Computation Completed


Properties will be evaluated at   0.000000,   0.000000,   0.000000 [a0]

Properties computed using the SCF density matrix

  Nuclear Dipole Moment: [e a0]
     X:     0.0000      Y:     0.0000      Z:    -1.2078

  Electronic Dipole Moment: [e a0]
     X:     0.0000      Y:    -0.0000      Z:     0.5210

  Dipole Moment: [e a0]
     X:     0.0000      Y:    -0.0000      Z:    -0.6868     Total:     0.6868

  Dipole Moment: [D]
     X:     0.0000      Y:    -0.0000      Z:    -1.7457     Total:     1.7457


*** tstop() called on trurls-machine at Thu Mar  5 13:00:07 2020
Module time:
	user time   =       0.16 seconds =       0.00 minutes
	system time =       0.01 seconds =       0.00 minutes
	total time  =          0 seconds =       0.00 minutes
Total time:
	user time   =       0.16 seconds =       0.00 minutes
	system time =       0.01 seconds =       0.00 minutes
	total time  =          0 seconds =       0.00 minutes

*** tstart() called on trurls-machine
*** at Thu Mar  5 13:00:07 2020

   => Loading Basis Set <=

    Name: STO-3G
    Role: ORBITAL
    Keyword: BASIS
    atoms 1 entry CL         line   195 file /Users/teague/anaconda3/envs/gen_env/share/psi4/basis/sto-3g.gbs 
    atoms 2 entry H          line    19 file /Users/teague/anaconda3/envs/gen_env/share/psi4/basis/sto-3g.gbs 


         ---------------------------------------------------------
                                   SCF
               by Justin Turney, Rob Parrish, Andy Simmonett
                          and Daniel G. A. Smith
                              RHF Reference
                        1 Threads,   7629 MiB Core
         ---------------------------------------------------------

  ==> Geometry <==

    Molecular point group: c1
    Full point group: C_inf_v

    Geometry (in Angstrom), charge = 0, multiplicity = 1:

       Center              X                  Y                   Z               Mass       
    ------------   -----------------  -----------------  -----------------  -----------------
         CL           0.000000000000     0.000000000000     0.036114730823    34.968852682000
         H            0.000000000000     0.000000000000    -1.253085269177     1.007825032230

  Running in c1 symmetry.

  Rotational constants: A = ************  B =     10.35405  C =     10.35405 [cm^-1]
  Rotational constants: A = ************  B = 310406.73576  C = 310406.73576 [MHz]
  Nuclear repulsion =    6.977980593693751

  Charge       = 0
  Multiplicity = 1
  Electrons    = 18
  Nalpha       = 9
  Nbeta        = 9

  ==> Algorithm <==

  SCF Algorithm Type is PK.
  DIIS enabled.
  MOM disabled.
  Fractional occupation disabled.
  Guess Type is SAD.
  Energy threshold   = 1.00e-06
  Density threshold  = 1.00e-06
  Integral threshold = 0.00e+00

  ==> Primary Basis <==

  Basis Set: STO-3G
    Blend: STO-3G
    Number of shells: 6
    Number of basis function: 10
    Number of Cartesian functions: 10
    Spherical Harmonics?: true
    Max angular momentum: 1

  ==> Pre-Iterations <==

   -------------------------------------------------------
    Irrep   Nso     Nmo     Nalpha   Nbeta   Ndocc  Nsocc
   -------------------------------------------------------
     A         10      10       0       0       0       0
   -------------------------------------------------------
    Total      10      10       9       9       9       0
   -------------------------------------------------------

  ==> Integral Setup <==

  Using in-core PK algorithm.
   Calculation information:
      Number of atoms:                   2
      Number of AO shells:               6
      Number of primitives:             18
      Number of atomic orbitals:        10
      Number of basis functions:        10

      Integral cutoff                 1.00e-12
      Number of threads:                 1

  Performing in-core PK
  Using 3080 doubles for integral storage.
  We computed 231 shell quartets total.
  Whereas there are 231 unique shell quartets.

  ==> DiskJK: Disk-Based J/K Matrices <==

    J tasked:                  Yes
    K tasked:                  Yes
    wK tasked:                  No
    Memory [MiB]:             5722
    Schwarz Cutoff:          1E-12

    OpenMP threads:              1

  Minimum eigenvalue in the overlap matrix is 3.6552516931E-01.
  Using Symmetric Orthogonalization.

  SCF Guess: Superposition of Atomic Densities via on-the-fly atomic UHF.

  ==> Iterations <==

                        Total Energy        Delta E     RMS |[F,P]|

   @RHF iter SAD:  -454.82190483205181   -4.54822e+02   0.00000e+00 
   @RHF iter   1:  -455.11061282736949   -2.88708e-01   1.45243e-02 DIIS
   @RHF iter   2:  -455.13530003943185   -2.46872e-02   1.50250e-03 DIIS
   @RHF iter   3:  -455.13555551232480   -2.55473e-04   6.69572e-05 DIIS
   @RHF iter   4:  -455.13555582807732   -3.15753e-07   8.57490e-06 DIIS
   @RHF iter   5:  -455.13555583491154   -6.83423e-09   3.77055e-07 DIIS
  Energy and wave function converged.


  ==> Post-Iterations <==

    Orbital Energies [Eh]
    ---------------------

    Doubly Occupied:                                                      

       1A   -103.721116     2A    -10.402555     3A     -7.847329  
       4A     -7.840762     5A     -7.840762     6A     -1.040063  
       7A     -0.561267     8A     -0.422039     9A     -0.422039  

    Virtual:                                                              

      10A      0.394131  

    Final Occupation by Irrep:
              A 
    DOCC [     9 ]

  @RHF Final Energy:  -455.13555583491154

   => Energetics <=

    Nuclear Repulsion Energy =              6.9779805936937507
    One-Electron Energy =                -644.0311837104395636
    Two-Electron Energy =                 181.9176472818343484
    Total Energy =                       -455.1355558349115427

Computation Completed


Properties will be evaluated at   0.000000,   0.000000,   0.000000 [a0]

Properties computed using the SCF density matrix

  Nuclear Dipole Moment: [e a0]
     X:     0.0000      Y:     0.0000      Z:    -1.2078

  Electronic Dipole Moment: [e a0]
     X:     0.0000      Y:    -0.0000      Z:     0.5210

  Dipole Moment: [e a0]
     X:     0.0000      Y:    -0.0000      Z:    -0.6868     Total:     0.6868

  Dipole Moment: [D]
     X:     0.0000      Y:    -0.0000      Z:    -1.7457     Total:     1.7457


*** tstop() called on trurls-machine at Thu Mar  5 13:00:08 2020
Module time:
	user time   =       0.14 seconds =       0.00 minutes
	system time =       0.01 seconds =       0.00 minutes
	total time  =          1 seconds =       0.02 minutes
Total time:
	user time   =       0.34 seconds =       0.01 minutes
	system time =       0.02 seconds =       0.00 minutes
	total time  =          1 seconds =       0.02 minutes

*** tstart() called on trurls-machine
*** at Thu Mar  5 13:00:08 2020


  //>>>>>>>>>>>>>>>>>>>>>>>>>>>>>>>>>>>//
  //               DFMP2               //
  //<<<<<<<<<<<<<<<<<<<<<<<<<<<<<<<<<<<//

   => Loading Basis Set <=

    Name: (STO-3G AUX)
    Role: RIFIT
    Keyword: DF_BASIS_MP2
    atoms 1 entry CL         line  1114 file /Users/teague/anaconda3/envs/gen_env/share/psi4/basis/def2-qzvpp-ri.gbs 
    atoms 2 entry H          line    24 file /Users/teague/anaconda3/envs/gen_env/share/psi4/basis/def2-qzvpp-ri.gbs 

	 --------------------------------------------------------
	                          DF-MP2                         
	      2nd-Order Density-Fitted Moller-Plesset Theory     
	              RMP2 Wavefunction,   1 Threads             
	                                                         
	        Rob Parrish, Justin Turney, Andy Simmonett,      
	           Ed Hohenstein, and C. David Sherrill          
	 --------------------------------------------------------

   => Auxiliary Basis Set <=

  Basis Set: (STO-3G AUX)
    Blend: DEF2-QZVPP-RI
    Number of shells: 57
    Number of basis function: 223
    Number of Cartesian functions: 293
    Spherical Harmonics?: true
    Max angular momentum: 5

	 --------------------------------------------------------
	                 NBF =    10, NAUX =   223
	 --------------------------------------------------------
	   CLASS    FOCC     OCC    AOCC    AVIR     VIR    FVIR
	   PAIRS       0       9       9       1       1       0
	 --------------------------------------------------------

	-----------------------------------------------------------
	 ==================> DF-MP2 Energies <==================== 
	-----------------------------------------------------------
	 Reference Energy          =    -455.1355558349115427 [Eh]
	 Singles Energy            =      -0.0000000000000000 [Eh]
	 Same-Spin Energy          =       0.0000000000000000 [Eh]
	 Opposite-Spin Energy      =      -0.0131676218941384 [Eh]
	 Correlation Energy        =      -0.0131676218941384 [Eh]
	 Total Energy              =    -455.1487234568056692 [Eh]
	-----------------------------------------------------------
	 ================> DF-SCS-MP2 Energies <================== 
	-----------------------------------------------------------
	 SCS Same-Spin Scale       =       0.3333333333333333 [-]
	 SCS Opposite-Spin Scale   =       1.2000000000000000 [-]
	 SCS Same-Spin Energy      =       0.0000000000000000 [Eh]
	 SCS Opposite-Spin Energy  =      -0.0158011462729660 [Eh]
	 SCS Correlation Energy    =      -0.0158011462729660 [Eh]
	 SCS Total Energy          =    -455.1513569811845059 [Eh]
	-----------------------------------------------------------


*** tstop() called on trurls-machine at Thu Mar  5 13:00:08 2020
Module time:
	user time   =       0.08 seconds =       0.00 minutes
	system time =       0.01 seconds =       0.00 minutes
	total time  =          0 seconds =       0.00 minutes
Total time:
	user time   =       0.42 seconds =       0.01 minutes
	system time =       0.03 seconds =       0.00 minutes
	total time  =          1 seconds =       0.02 minutes

*** tstart() called on trurls-machine
*** at Thu Mar  5 13:00:08 2020

   => Loading Basis Set <=

    Name: STO-3G
    Role: ORBITAL
    Keyword: BASIS
    atoms 1 entry CL         line   195 file /Users/teague/anaconda3/envs/gen_env/share/psi4/basis/sto-3g.gbs 
    atoms 2 entry H          line    19 file /Users/teague/anaconda3/envs/gen_env/share/psi4/basis/sto-3g.gbs 


         ---------------------------------------------------------
                                   SCF
               by Justin Turney, Rob Parrish, Andy Simmonett
                          and Daniel G. A. Smith
                              RHF Reference
                        1 Threads,   7629 MiB Core
         ---------------------------------------------------------

  ==> Geometry <==

    Molecular point group: c1
    Full point group: C_inf_v

    Geometry (in Angstrom), charge = 0, multiplicity = 1:

       Center              X                  Y                   Z               Mass       
    ------------   -----------------  -----------------  -----------------  -----------------
         CL           0.000000000000     0.000000000000     0.036114730823    34.968852682000
         H            0.000000000000     0.000000000000    -1.253085269177     1.007825032230

  Running in c1 symmetry.

  Rotational constants: A = ************  B =     10.35405  C =     10.35405 [cm^-1]
  Rotational constants: A = ************  B = 310406.73576  C = 310406.73576 [MHz]
  Nuclear repulsion =    6.977980593693751

  Charge       = 0
  Multiplicity = 1
  Electrons    = 18
  Nalpha       = 9
  Nbeta        = 9

  ==> Algorithm <==

  SCF Algorithm Type is PK.
  DIIS enabled.
  MOM disabled.
  Fractional occupation disabled.
  Guess Type is SAD.
  Energy threshold   = 1.00e-06
  Density threshold  = 1.00e-06
  Integral threshold = 0.00e+00

  ==> Primary Basis <==

  Basis Set: STO-3G
    Blend: STO-3G
    Number of shells: 6
    Number of basis function: 10
    Number of Cartesian functions: 10
    Spherical Harmonics?: true
    Max angular momentum: 1

  ==> Pre-Iterations <==

   -------------------------------------------------------
    Irrep   Nso     Nmo     Nalpha   Nbeta   Ndocc  Nsocc
   -------------------------------------------------------
     A         10      10       0       0       0       0
   -------------------------------------------------------
    Total      10      10       9       9       9       0
   -------------------------------------------------------

  ==> Integral Setup <==

  Using in-core PK algorithm.
   Calculation information:
      Number of atoms:                   2
      Number of AO shells:               6
      Number of primitives:             18
      Number of atomic orbitals:        10
      Number of basis functions:        10

      Integral cutoff                 1.00e-12
      Number of threads:                 1

  Performing in-core PK
  Using 3080 doubles for integral storage.
  We computed 231 shell quartets total.
  Whereas there are 231 unique shell quartets.

  ==> DiskJK: Disk-Based J/K Matrices <==

    J tasked:                  Yes
    K tasked:                  Yes
    wK tasked:                  No
    Memory [MiB]:             5722
    Schwarz Cutoff:          1E-12

    OpenMP threads:              1

  Minimum eigenvalue in the overlap matrix is 3.6552516931E-01.
  Using Symmetric Orthogonalization.

  SCF Guess: Superposition of Atomic Densities via on-the-fly atomic UHF.

  ==> Iterations <==

                        Total Energy        Delta E     RMS |[F,P]|

   @RHF iter SAD:  -454.82190483205181   -4.54822e+02   0.00000e+00 
   @RHF iter   1:  -455.11061282736949   -2.88708e-01   1.45243e-02 DIIS
   @RHF iter   2:  -455.13530003943185   -2.46872e-02   1.50250e-03 DIIS
   @RHF iter   3:  -455.13555551232480   -2.55473e-04   6.69572e-05 DIIS
   @RHF iter   4:  -455.13555582807732   -3.15753e-07   8.57490e-06 DIIS
   @RHF iter   5:  -455.13555583491154   -6.83423e-09   3.77055e-07 DIIS
  Energy and wave function converged.


  ==> Post-Iterations <==

    Orbital Energies [Eh]
    ---------------------

    Doubly Occupied:                                                      

       1A   -103.721116     2A    -10.402555     3A     -7.847329  
       4A     -7.840762     5A     -7.840762     6A     -1.040063  
       7A     -0.561267     8A     -0.422039     9A     -0.422039  

    Virtual:                                                              

      10A      0.394131  

    Final Occupation by Irrep:
              A 
    DOCC [     9 ]

  @RHF Final Energy:  -455.13555583491154

   => Energetics <=

    Nuclear Repulsion Energy =              6.9779805936937507
    One-Electron Energy =                -644.0311837104395636
    Two-Electron Energy =                 181.9176472818343484
    Total Energy =                       -455.1355558349115427

Computation Completed


Properties will be evaluated at   0.000000,   0.000000,   0.000000 [a0]

Properties computed using the SCF density matrix

  Nuclear Dipole Moment: [e a0]
     X:     0.0000      Y:     0.0000      Z:    -1.2078

  Electronic Dipole Moment: [e a0]
     X:     0.0000      Y:    -0.0000      Z:     0.5210

  Dipole Moment: [e a0]
     X:     0.0000      Y:    -0.0000      Z:    -0.6868     Total:     0.6868

  Dipole Moment: [D]
     X:     0.0000      Y:    -0.0000      Z:    -1.7457     Total:     1.7457


*** tstop() called on trurls-machine at Thu Mar  5 13:00:08 2020
Module time:
	user time   =       0.14 seconds =       0.00 minutes
	system time =       0.01 seconds =       0.00 minutes
	total time  =          0 seconds =       0.00 minutes
Total time:
	user time   =       0.59 seconds =       0.01 minutes
	system time =       0.04 seconds =       0.00 minutes
	total time  =          1 seconds =       0.02 minutes
 MINTS: Wrapper to libmints.
   by Justin Turney

   Calculation information:
      Number of threads:                 1
      Number of atoms:                   2
      Number of AO shells:               6
      Number of SO shells:               6
      Number of primitives:             18
      Number of atomic orbitals:        10
      Number of basis functions:        10

      Number of irreps:                  1
      Integral cutoff                 0.00e+00
      Number of functions per irrep: [  10 ]

 OEINTS: Overlap, kinetic, potential, dipole, and quadrupole integrals
         stored in file 35.

      Computing two-electron integrals...done
      Computed 406 non-zero two-electron integrals.
        Stored in file 33.


         ---------------------------------------------------------
                          Configuration Interaction
                            (a 'D E T C I' module)

                 C. David Sherrill, Daniel G. A. Smith, and
                              Matt L. Leininger
         ---------------------------------------------------------


   ==> Parameters <==

    EX LEVEL       =        2      H0 BLOCKSIZE  =     1000
    VAL EX LEVEL   =        0      H0 GUESS SIZE =     1000
    H0COUPLINGSIZE =        0      H0 COUPLING   =       NO
    MAXITER        =       24      NUM PRINT     =       20
    NUM ROOTS      =        1      ICORE         =        1
    PRINT LVL      =        1      FCI           =       NO
    R CONV         = 1.00e-06      MIXED         =      YES
    E CONV         = 1.00e-06      MIXED4        =      YES
    R4S            =       NO      REPL OTF      =       NO
    DIAG METHOD    =      SEM      FOLLOW ROOT   =        0
    PRECONDITIONER = DAVIDSON      UPDATE        = DAVIDSON
    S              =   0.0000      Ms0           =      YES
    GUESS VECTOR   =  H0BLOCK      OPENTYPE      =     NONE
    COLLAPSE SIZE  =        1      HD AVG        = EVANGELISTI
    MAX NUM VECS   =       25      REF SYM       =     AUTO
    IOPEN        =       NO

    EX ALLOW       =  1  1 
    STATE AVERAGE  =  0(1.00) 

   ==> CI Orbital and Space information <==

    RAS1 LVL      =        8      A RAS3 MAX    =        1
    RAS1 MIN      =       16      B RAS3 MAX    =        1
    A RAS1 LVL    =        8      RAS4 LVL      =       10
    A RAS1 MIN    =        7      A RAS4 MAX    =        0
    A RAS1 MAX    =        9      B RAS4 MAX    =        0
    B RAS1 LVL    =        8      RAS4 MAX      =        0
    B RAS1 MIN    =        7      A RAS34 MAX   =        1
    B RAS1 MAX    =        9      B RAS34 MAX   =        1
    RAS3 LVL      =        9      RAS34 MAX     =        2
    RAS3 MAX      =        2
   ------------------------------------
               Space    Total     A
   ------------------------------------
                 Nso       10    10
                 Nmo       10    10
               Ndocc        9     9
               Nsocc        0     0
   ------------------------------------
              CI Spaces
   ------------------------------------
        Dropped DOCC        0     0
                RAS1        9     9
                RAS2        0     0
                RAS3        1     1
                RAS4        0     0
      Active (total)       10    10
        Dropped UOCC        0     0
   ------------------------------------

   ==> Setting up CI strings <==

    There are 10 alpha and 10 beta strings
    The CI space requires 100 (1.00E+02) determinants and 4 blocks

   ==> Transforming CI integrals <==

	Presorting SO-basis two-electron integrals.
	Sorting File: SO Ints (nn|nn) nbuckets = 1
	Transforming the one-electron integrals and constructing Fock matrices
	Starting first half-transformation.
	Sorting half-transformed integrals.
	First half integral transformation complete.
	Starting second half-transformation.
	Two-electron integral transformation complete.

   ==> Starting CI iterations <==

    H0 Block Eigenvalue = -455.15515764

    Simultaneous Expansion Method (Block Davidson Method)
    Using 1 initial trial vectors

     Iter   Root       Total Energy       Delta E      C RMS

   @CI  0:     0   -455.155157635670   -4.6213E+02   1.0781E-12  
    Warning: Norm of correction (root 0) is < 1.0E-13
   @CI  1:     0   -455.155157635670   0.0000E+00   9.8209E-12 c

   ==> Energetics <==

    SCF energy =         -455.135555834911543
    Total CI energy =    -455.155157635670378

   ==> CISD root 0 information <==

    CISD Root 0 energy =  -455.155157635670378

   The 20 most important determinants:

    *   1    0.992538  (    0,    0)  1AX 2AX 3AX 4AX 5AX 6AX 7AX 8AX 9AX 
    *   2   -0.107696  (    3,    3)  1AX 2AX 3AX 4AX 5AX 6AX 8AX 9AX 10AX 
    *   3   -0.030924  (    3,    4)  1AX 2AX 3AX 4AX 5AX 6AA 7AB 8AX 9AX 10AX 
    *   4   -0.030924  (    4,    3)  1AX 2AX 3AX 4AX 5AX 6AB 7AA 8AX 9AX 10AX 
    *   5   -0.024754  (    4,    4)  1AX 2AX 3AX 4AX 5AX 7AX 8AX 9AX 10AX 
    *   6   -0.014738  (    2,    2)  1AX 2AX 3AX 4AX 5AX 6AX 7AX 9AX 10AX 
    *   7   -0.014738  (    1,    1)  1AX 2AX 3AX 4AX 5AX 6AX 7AX 8AX 10AX 
    *   8    0.011980  (    0,    3)  1AX 2AX 3AX 4AX 5AX 6AX 7AA 8AX 9AX 10AB 
    *   9    0.011980  (    3,    0)  1AX 2AX 3AX 4AX 5AX 6AX 7AB 8AX 9AX 10AA 
    *  10   -0.003049  (    0,    4)  1AX 2AX 3AX 4AX 5AX 6AA 7AX 8AX 9AX 10AB 
    *  11   -0.003049  (    4,    0)  1AX 2AX 3AX 4AX 5AX 6AB 7AX 8AX 9AX 10AA 
    *  12   -0.001324  (    7,    7)  1AX 2AX 4AX 5AX 6AX 7AX 8AX 9AX 10AX 
    *  13   -0.000575  (    3,    7)  1AX 2AX 3AA 4AX 5AX 6AX 7AB 8AX 9AX 10AX 
    *  14   -0.000575  (    7,    3)  1AX 2AX 3AB 4AX 5AX 6AX 7AA 8AX 9AX 10AX 
    *  15   -0.000486  (    4,    7)  1AX 2AX 3AA 4AX 5AX 6AB 7AX 8AX 9AX 10AX 
    *  16   -0.000486  (    7,    4)  1AX 2AX 3AB 4AX 5AX 6AA 7AX 8AX 9AX 10AX 
    *  17   -0.000476  (    7,    8)  1AX 2AA 3AB 4AX 5AX 6AX 7AX 8AX 9AX 10AX 
    *  18   -0.000476  (    8,    7)  1AX 2AB 3AA 4AX 5AX 6AX 7AX 8AX 9AX 10AX 
    *  19   -0.000385  (    3,    8)  1AX 2AA 3AX 4AX 5AX 6AX 7AB 8AX 9AX 10AX 
    *  20   -0.000385  (    8,    3)  1AX 2AB 3AX 4AX 5AX 6AX 7AA 8AX 9AX 10AX 

		 "A good bug is a dead bug" 

			 - Starship Troopers

		 "I didn't write FORTRAN.  That's the problem."

			 - Edward Valeev

*** tstart() called on trurls-machine
*** at Thu Mar  5 13:00:08 2020

   => Loading Basis Set <=

    Name: STO-3G
    Role: ORBITAL
    Keyword: BASIS
    atoms 1 entry CL         line   195 file /Users/teague/anaconda3/envs/gen_env/share/psi4/basis/sto-3g.gbs 
    atoms 2 entry H          line    19 file /Users/teague/anaconda3/envs/gen_env/share/psi4/basis/sto-3g.gbs 


         ---------------------------------------------------------
                                   SCF
               by Justin Turney, Rob Parrish, Andy Simmonett
                          and Daniel G. A. Smith
                              RHF Reference
                        1 Threads,   7629 MiB Core
         ---------------------------------------------------------

  ==> Geometry <==

    Molecular point group: c1
    Full point group: C_inf_v

    Geometry (in Angstrom), charge = 0, multiplicity = 1:

       Center              X                  Y                   Z               Mass       
    ------------   -----------------  -----------------  -----------------  -----------------
         CL           0.000000000000     0.000000000000     0.036114730823    34.968852682000
         H            0.000000000000     0.000000000000    -1.253085269177     1.007825032230

  Running in c1 symmetry.

  Rotational constants: A = ************  B =     10.35405  C =     10.35405 [cm^-1]
  Rotational constants: A = ************  B = 310406.73576  C = 310406.73576 [MHz]
  Nuclear repulsion =    6.977980593693751

  Charge       = 0
  Multiplicity = 1
  Electrons    = 18
  Nalpha       = 9
  Nbeta        = 9

  ==> Algorithm <==

  SCF Algorithm Type is PK.
  DIIS enabled.
  MOM disabled.
  Fractional occupation disabled.
  Guess Type is SAD.
  Energy threshold   = 1.00e-06
  Density threshold  = 1.00e-06
  Integral threshold = 0.00e+00

  ==> Primary Basis <==

  Basis Set: STO-3G
    Blend: STO-3G
    Number of shells: 6
    Number of basis function: 10
    Number of Cartesian functions: 10
    Spherical Harmonics?: true
    Max angular momentum: 1

  ==> Pre-Iterations <==

   -------------------------------------------------------
    Irrep   Nso     Nmo     Nalpha   Nbeta   Ndocc  Nsocc
   -------------------------------------------------------
     A         10      10       0       0       0       0
   -------------------------------------------------------
    Total      10      10       9       9       9       0
   -------------------------------------------------------

  ==> Integral Setup <==

  Using in-core PK algorithm.
   Calculation information:
      Number of atoms:                   2
      Number of AO shells:               6
      Number of primitives:             18
      Number of atomic orbitals:        10
      Number of basis functions:        10

      Integral cutoff                 1.00e-12
      Number of threads:                 1

  Performing in-core PK
  Using 3080 doubles for integral storage.
  We computed 231 shell quartets total.
  Whereas there are 231 unique shell quartets.

  ==> DiskJK: Disk-Based J/K Matrices <==

    J tasked:                  Yes
    K tasked:                  Yes
    wK tasked:                  No
    Memory [MiB]:             5722
    Schwarz Cutoff:          1E-12

    OpenMP threads:              1

  Minimum eigenvalue in the overlap matrix is 3.6552516931E-01.
  Using Symmetric Orthogonalization.

  SCF Guess: Superposition of Atomic Densities via on-the-fly atomic UHF.

  ==> Iterations <==

                        Total Energy        Delta E     RMS |[F,P]|

   @RHF iter SAD:  -454.82190483205164   -4.54822e+02   0.00000e+00 
   @RHF iter   1:  -455.11061282737012   -2.88708e-01   1.45243e-02 DIIS
   @RHF iter   2:  -455.13530003943248   -2.46872e-02   1.50250e-03 DIIS
   @RHF iter   3:  -455.13555551232554   -2.55473e-04   6.69572e-05 DIIS
   @RHF iter   4:  -455.13555582807834   -3.15753e-07   8.57490e-06 DIIS
   @RHF iter   5:  -455.13555583491245   -6.83411e-09   3.77055e-07 DIIS
  Energy and wave function converged.


  ==> Post-Iterations <==

    Orbital Energies [Eh]
    ---------------------

    Doubly Occupied:                                                      

       1A   -103.721116     2A    -10.402555     3A     -7.847329  
       4A     -7.840762     5A     -7.840762     6A     -1.040063  
       7A     -0.561267     8A     -0.422039     9A     -0.422039  

    Virtual:                                                              

      10A      0.394131  

    Final Occupation by Irrep:
              A 
    DOCC [     9 ]

  @RHF Final Energy:  -455.13555583491245

   => Energetics <=

    Nuclear Repulsion Energy =              6.9779805936937507
    One-Electron Energy =                -644.0311837104405868
    Two-Electron Energy =                 181.9176472818344621
    Total Energy =                       -455.1355558349124522

Computation Completed


Properties will be evaluated at   0.000000,   0.000000,   0.000000 [a0]

Properties computed using the SCF density matrix

  Nuclear Dipole Moment: [e a0]
     X:     0.0000      Y:     0.0000      Z:    -1.2078

  Electronic Dipole Moment: [e a0]
     X:     0.0000      Y:    -0.0000      Z:     0.5210

  Dipole Moment: [e a0]
     X:     0.0000      Y:    -0.0000      Z:    -0.6868     Total:     0.6868

  Dipole Moment: [D]
     X:     0.0000      Y:    -0.0000      Z:    -1.7457     Total:     1.7457


*** tstop() called on trurls-machine at Thu Mar  5 13:00:08 2020
Module time:
	user time   =       0.13 seconds =       0.00 minutes
	system time =       0.01 seconds =       0.00 minutes
	total time  =          0 seconds =       0.00 minutes
Total time:
	user time   =       0.80 seconds =       0.01 minutes
	system time =       0.06 seconds =       0.00 minutes
	total time  =          1 seconds =       0.02 minutes
 MINTS: Wrapper to libmints.
   by Justin Turney

   Calculation information:
      Number of threads:                 1
      Number of atoms:                   2
      Number of AO shells:               6
      Number of SO shells:               6
      Number of primitives:             18
      Number of atomic orbitals:        10
      Number of basis functions:        10

      Number of irreps:                  1
      Integral cutoff                 0.00e+00
      Number of functions per irrep: [  10 ]

 OEINTS: Overlap, kinetic, potential, dipole, and quadrupole integrals
         stored in file 35.

      Computing two-electron integrals...done
      Computed 406 non-zero two-electron integrals.
        Stored in file 33.


         ---------------------------------------------------------
                          Configuration Interaction
                            (a 'D E T C I' module)

                 C. David Sherrill, Daniel G. A. Smith, and
                              Matt L. Leininger
         ---------------------------------------------------------


   ==> Parameters <==

    EX LEVEL       =       18      H0 BLOCKSIZE  =     1000
    VAL EX LEVEL   =        0      H0 GUESS SIZE =     1000
    H0COUPLINGSIZE =        0      H0 COUPLING   =       NO
    MAXITER        =       24      NUM PRINT     =       20
    NUM ROOTS      =        1      ICORE         =        1
    PRINT LVL      =        1      FCI           =      YES
    R CONV         = 1.00e-06      MIXED         =      YES
    E CONV         = 1.00e-06      MIXED4        =      YES
    R4S            =       NO      REPL OTF      =       NO
    DIAG METHOD    =      SEM      FOLLOW ROOT   =        0
    PRECONDITIONER = DAVIDSON      UPDATE        = DAVIDSON
    S              =   0.0000      Ms0           =      YES
    GUESS VECTOR   =  H0BLOCK      OPENTYPE      =     NONE
    COLLAPSE SIZE  =        1      HD AVG        = EVANGELISTI
    MAX NUM VECS   =       25      REF SYM       =     AUTO
    IOPEN        =       NO

    EX ALLOW       =  1  1  1  1  1  1  1  1  1  1  1  1  1  1  1  1  1  1 
    STATE AVERAGE  =  0(1.00) 

   ==> CI Orbital and Space information <==

   ------------------------------------
               Space    Total     A
   ------------------------------------
                 Nso       10    10
                 Nmo       10    10
               Ndocc        9     9
               Nsocc        0     0
   ------------------------------------
              CI Spaces
   ------------------------------------
        Dropped DOCC        0     0
              Active       10    10
        Dropped UOCC        0     0
   ------------------------------------

   ==> Setting up CI strings <==

    There are 10 alpha and 10 beta strings
    The CI space requires 100 (1.00E+02) determinants and 1 blocks

   ==> Transforming CI integrals <==

	Presorting SO-basis two-electron integrals.
	Sorting File: SO Ints (nn|nn) nbuckets = 1
	Transforming the one-electron integrals and constructing Fock matrices
	Starting first half-transformation.
	Sorting half-transformed integrals.
	First half integral transformation complete.
	Starting second half-transformation.
	Two-electron integral transformation complete.

   ==> Starting CI iterations <==

    H0 Block Eigenvalue = -455.15515764

    Simultaneous Expansion Method (Block Davidson Method)
    Using 1 initial trial vectors

     Iter   Root       Total Energy       Delta E      C RMS

   @CI  0:     0   -455.155157635669   -4.6213E+02   1.8857E-13  
    Warning: Norm of correction (root 0) is < 1.0E-13
   @CI  1:     0   -455.155157635669   0.0000E+00   2.6101E-14 c

   ==> Energetics <==

    SCF energy =         -455.135555834912452
    Total CI energy =    -455.155157635669354

   ==> FCI root 0 information <==

    FCI Root 0 energy =  -455.155157635669354

   The 20 most important determinants:

    *   1   -0.992538  (    0,    0)  1AX 2AX 3AX 4AX 5AX 6AX 7AX 8AX 9AX 
    *   2    0.107696  (    3,    3)  1AX 2AX 3AX 4AX 5AX 6AX 8AX 9AX 10AX 
    *   3    0.030924  (    3,    4)  1AX 2AX 3AX 4AX 5AX 6AA 7AB 8AX 9AX 10AX 
    *   4    0.030924  (    4,    3)  1AX 2AX 3AX 4AX 5AX 6AB 7AA 8AX 9AX 10AX 
    *   5    0.024754  (    4,    4)  1AX 2AX 3AX 4AX 5AX 7AX 8AX 9AX 10AX 
    *   6    0.014738  (    2,    2)  1AX 2AX 3AX 4AX 5AX 6AX 7AX 9AX 10AX 
    *   7    0.014738  (    1,    1)  1AX 2AX 3AX 4AX 5AX 6AX 7AX 8AX 10AX 
    *   8   -0.011980  (    0,    3)  1AX 2AX 3AX 4AX 5AX 6AX 7AA 8AX 9AX 10AB 
    *   9   -0.011980  (    3,    0)  1AX 2AX 3AX 4AX 5AX 6AX 7AB 8AX 9AX 10AA 
    *  10    0.003049  (    0,    4)  1AX 2AX 3AX 4AX 5AX 6AA 7AX 8AX 9AX 10AB 
    *  11    0.003049  (    4,    0)  1AX 2AX 3AX 4AX 5AX 6AB 7AX 8AX 9AX 10AA 
    *  12    0.001324  (    7,    7)  1AX 2AX 4AX 5AX 6AX 7AX 8AX 9AX 10AX 
    *  13    0.000575  (    3,    7)  1AX 2AX 3AA 4AX 5AX 6AX 7AB 8AX 9AX 10AX 
    *  14    0.000575  (    7,    3)  1AX 2AX 3AB 4AX 5AX 6AX 7AA 8AX 9AX 10AX 
    *  15    0.000486  (    4,    7)  1AX 2AX 3AA 4AX 5AX 6AB 7AX 8AX 9AX 10AX 
    *  16    0.000486  (    7,    4)  1AX 2AX 3AB 4AX 5AX 6AA 7AX 8AX 9AX 10AX 
    *  17    0.000476  (    7,    8)  1AX 2AA 3AB 4AX 5AX 6AX 7AX 8AX 9AX 10AX 
    *  18    0.000476  (    8,    7)  1AX 2AB 3AA 4AX 5AX 6AX 7AX 8AX 9AX 10AX 
    *  19    0.000385  (    3,    8)  1AX 2AA 3AX 4AX 5AX 6AX 7AB 8AX 9AX 10AX 
    *  20    0.000385  (    8,    3)  1AX 2AB 3AX 4AX 5AX 6AX 7AA 8AX 9AX 10AX 

		 "A good bug is a dead bug" 

			 - Starship Troopers

		 "I didn't write FORTRAN.  That's the problem."

			 - Edward Valeev

*** tstart() called on trurls-machine
*** at Thu Mar  5 13:00:08 2020

   => Loading Basis Set <=

    Name: STO-3G
    Role: ORBITAL
    Keyword: BASIS
    atoms 1 entry CL         line   195 file /Users/teague/anaconda3/envs/gen_env/share/psi4/basis/sto-3g.gbs 
    atoms 2 entry H          line    19 file /Users/teague/anaconda3/envs/gen_env/share/psi4/basis/sto-3g.gbs 


         ---------------------------------------------------------
                                   SCF
               by Justin Turney, Rob Parrish, Andy Simmonett
                          and Daniel G. A. Smith
                              RHF Reference
                        1 Threads,   7629 MiB Core
         ---------------------------------------------------------

  ==> Geometry <==

    Molecular point group: c1
    Full point group: C_inf_v

    Geometry (in Angstrom), charge = 0, multiplicity = 1:

       Center              X                  Y                   Z               Mass       
    ------------   -----------------  -----------------  -----------------  -----------------
         CL           0.000000000000     0.000000000000     0.036114730823    34.968852682000
         H            0.000000000000     0.000000000000    -1.253085269177     1.007825032230

  Running in c1 symmetry.

  Rotational constants: A = ************  B =     10.35405  C =     10.35405 [cm^-1]
  Rotational constants: A = ************  B = 310406.73576  C = 310406.73576 [MHz]
  Nuclear repulsion =    6.977980593693751

  Charge       = 0
  Multiplicity = 1
  Electrons    = 18
  Nalpha       = 9
  Nbeta        = 9

  ==> Algorithm <==

  SCF Algorithm Type is PK.
  DIIS enabled.
  MOM disabled.
  Fractional occupation disabled.
  Guess Type is SAD.
  Energy threshold   = 1.00e-06
  Density threshold  = 1.00e-06
  Integral threshold = 0.00e+00

  ==> Primary Basis <==

  Basis Set: STO-3G
    Blend: STO-3G
    Number of shells: 6
    Number of basis function: 10
    Number of Cartesian functions: 10
    Spherical Harmonics?: true
    Max angular momentum: 1

  ==> Pre-Iterations <==

   -------------------------------------------------------
    Irrep   Nso     Nmo     Nalpha   Nbeta   Ndocc  Nsocc
   -------------------------------------------------------
     A         10      10       0       0       0       0
   -------------------------------------------------------
    Total      10      10       9       9       9       0
   -------------------------------------------------------

  ==> Integral Setup <==

  Using in-core PK algorithm.
   Calculation information:
      Number of atoms:                   2
      Number of AO shells:               6
      Number of primitives:             18
      Number of atomic orbitals:        10
      Number of basis functions:        10

      Integral cutoff                 1.00e-12
      Number of threads:                 1

  Performing in-core PK
  Using 3080 doubles for integral storage.
  We computed 231 shell quartets total.
  Whereas there are 231 unique shell quartets.

  ==> DiskJK: Disk-Based J/K Matrices <==

    J tasked:                  Yes
    K tasked:                  Yes
    wK tasked:                  No
    Memory [MiB]:             5722
    Schwarz Cutoff:          1E-12

    OpenMP threads:              1

  Minimum eigenvalue in the overlap matrix is 3.6552516931E-01.
  Using Symmetric Orthogonalization.

  SCF Guess: Superposition of Atomic Densities via on-the-fly atomic UHF.

  ==> Iterations <==

                        Total Energy        Delta E     RMS |[F,P]|

   @RHF iter SAD:  -454.82190483205181   -4.54822e+02   0.00000e+00 
   @RHF iter   1:  -455.11061282736949   -2.88708e-01   1.45243e-02 DIIS
   @RHF iter   2:  -455.13530003943185   -2.46872e-02   1.50250e-03 DIIS
   @RHF iter   3:  -455.13555551232480   -2.55473e-04   6.69572e-05 DIIS
   @RHF iter   4:  -455.13555582807732   -3.15753e-07   8.57490e-06 DIIS
   @RHF iter   5:  -455.13555583491154   -6.83423e-09   3.77055e-07 DIIS
  Energy and wave function converged.


  ==> Post-Iterations <==

    Orbital Energies [Eh]
    ---------------------

    Doubly Occupied:                                                      

       1A   -103.721116     2A    -10.402555     3A     -7.847329  
       4A     -7.840762     5A     -7.840762     6A     -1.040063  
       7A     -0.561267     8A     -0.422039     9A     -0.422039  

    Virtual:                                                              

      10A      0.394131  

    Final Occupation by Irrep:
              A 
    DOCC [     9 ]

  @RHF Final Energy:  -455.13555583491154

   => Energetics <=

    Nuclear Repulsion Energy =              6.9779805936937507
    One-Electron Energy =                -644.0311837104395636
    Two-Electron Energy =                 181.9176472818343484
    Total Energy =                       -455.1355558349115427

Computation Completed


Properties will be evaluated at   0.000000,   0.000000,   0.000000 [a0]

Properties computed using the SCF density matrix

  Nuclear Dipole Moment: [e a0]
     X:     0.0000      Y:     0.0000      Z:    -1.2078

  Electronic Dipole Moment: [e a0]
     X:     0.0000      Y:    -0.0000      Z:     0.5210

  Dipole Moment: [e a0]
     X:     0.0000      Y:    -0.0000      Z:    -0.6868     Total:     0.6868

  Dipole Moment: [D]
     X:     0.0000      Y:    -0.0000      Z:    -1.7457     Total:     1.7457


*** tstop() called on trurls-machine at Thu Mar  5 13:00:08 2020
Module time:
	user time   =       0.14 seconds =       0.00 minutes
	system time =       0.01 seconds =       0.00 minutes
	total time  =          0 seconds =       0.00 minutes
Total time:
	user time   =       1.03 seconds =       0.02 minutes
	system time =       0.09 seconds =       0.00 minutes
	total time  =          1 seconds =       0.02 minutes
 MINTS: Wrapper to libmints.
   by Justin Turney

   Calculation information:
      Number of threads:                 1
      Number of atoms:                   2
      Number of AO shells:               6
      Number of SO shells:               6
      Number of primitives:             18
      Number of atomic orbitals:        10
      Number of basis functions:        10

      Number of irreps:                  1
      Integral cutoff                 0.00e+00
      Number of functions per irrep: [  10 ]

 OEINTS: Overlap, kinetic, potential, dipole, and quadrupole integrals
         stored in file 35.

      Computing two-electron integrals...done
      Computed 406 non-zero two-electron integrals.
        Stored in file 33.


*** tstart() called on trurls-machine
*** at Thu Mar  5 13:00:08 2020


	Wfn Parameters:
	--------------------
	Wavefunction         = CCSD
	Number of irreps     = 1
	Number of MOs        = 10
	Number of active MOs = 10
	AO-Basis             = NONE
	Semicanonical        = false
	Reference            = RHF
	Print Level          = 1

	IRREP	# MOs	# FZDC	# DOCC	# SOCC	# VIRT	# FZVR
	-----	-----	------	------	------	------	------
	 A	   10	    0	    9	    0	    1	    0
	Transforming integrals...
	IWL integrals will be deleted.
	(OO|OO)...
	Presorting SO-basis two-electron integrals.
	Sorting File: SO Ints (nn|nn) nbuckets = 1
	Transforming the one-electron integrals and constructing Fock matrices
	Starting first half-transformation.
	Sorting half-transformed integrals.
	First half integral transformation complete.
	Starting second half-transformation.
	Two-electron integral transformation complete.
	(OO|OV)...
	Starting second half-transformation.
	Two-electron integral transformation complete.
	(OO|VV)...
	Starting second half-transformation.
	Two-electron integral transformation complete.
	(OV|OO)...
	Starting first half-transformation.
	Sorting half-transformed integrals.
	First half integral transformation complete.
	Starting second half-transformation.
	Two-electron integral transformation complete.
	(OV|OV)...
	Starting second half-transformation.
	Two-electron integral transformation complete.
	(OV|VV)...
	Starting second half-transformation.
	Two-electron integral transformation complete.
	(VV|OO)...
	Starting first half-transformation.
	Sorting half-transformed integrals.
	First half integral transformation complete.
	Starting second half-transformation.
	Two-electron integral transformation complete.
	(VV|OV)...
	Starting second half-transformation.
	Two-electron integral transformation complete.
	(VV|VV)...
	Starting second half-transformation.
	Two-electron integral transformation complete.
	Frozen core energy     =      0.00000000000000

	Size of irrep 0 of <ab|cd> integrals:      0.000 (MW) /      0.000 (MB)
	Total:                                     0.000 (MW) /      0.000 (MB)

	Size of irrep 0 of <ia|bc> integrals:      0.000 (MW) /      0.000 (MB)
	Total:                                     0.000 (MW) /      0.000 (MB)

	Size of irrep 0 of tijab amplitudes:       0.000 (MW) /      0.001 (MB)
	Total:                                     0.000 (MW) /      0.001 (MB)

	Nuclear Rep. energy          =      6.97798059369375
	SCF energy                   =   -455.13555583491154
	One-electron energy          =   -644.03120915392719
	Two-electron energy          =    181.91767272530569
	Reference energy             =   -455.13555583492774

*** tstop() called on trurls-machine at Thu Mar  5 13:00:08 2020
Module time:
	user time   =       0.00 seconds =       0.00 minutes
	system time =       0.03 seconds =       0.00 minutes
	total time  =          0 seconds =       0.00 minutes
Total time:
	user time   =       1.04 seconds =       0.02 minutes
	system time =       0.13 seconds =       0.00 minutes
	total time  =          1 seconds =       0.02 minutes
            **************************
            *                        *
            *        CCENERGY        *
            *                        *
            **************************

    Nuclear Rep. energy (wfn)     =    6.977980593693751
    SCF energy          (wfn)     = -455.135555834911543
    Reference energy    (file100) = -455.135555834927743

    Input parameters:
    -----------------
    Wave function   =     CCSD
    Reference wfn   =     RHF
    Brueckner       =     No
    Memory (Mbytes) =     8000.0
    Maxiter         =   1000000
    R_Convergence   =     1.0e-06
    E_Convergence   =     1.0e-06
    Restart         =     Yes
    DIIS            =     Yes
    AO Basis        =     NONE
    ABCD            =     NEW
    Cache Level     =     2
    Cache Type      =     LOW
    Print Level     =     1
    Num. of threads =     1
    # Amps to Print =     1000000
    Print MP2 Amps? =     No
    Analyze T2 Amps =     No
    Print Pair Ener =     No
    Local CC        =     No
    SCS-MP2         =     False
    SCSN-MP2        =     False
    SCS-CCSD        =     False

MP2 correlation energy -0.0131679485030541
                Solving CC Amplitude Equations
                ------------------------------
  Iter             Energy              RMS        T1Diag      D1Diag    New D1Diag    D2Diag
  ----     ---------------------    ---------   ----------  ----------  ----------   --------
     0        -0.013167948503054    0.000e+00    0.000000    0.000000    0.000000    0.080780
     1        -0.017209466232586    2.730e-02    0.001629    0.006911    0.006911    0.106114
     2        -0.019598816544353    1.050e-02    0.002827    0.011996    0.011996    0.121570
     3        -0.019597856594611    6.264e-04    0.002918    0.012379    0.012379    0.121660
     4        -0.019602220570033    9.035e-05    0.002935    0.012454    0.012454    0.121696
     5        -0.019601835521444    6.445e-06    0.002936    0.012456    0.012456    0.121694
     6        -0.019601821149365    4.942e-07    0.002936    0.012456    0.012456    0.121694

    Iterations converged.


    Largest TIA Amplitudes:
              6   0         0.0120703252
              5   0         0.0030715510
              2   0         0.0001243944
              1   0        -0.0000155432
              0   0         0.0000007269

    Largest TIjAb Amplitudes:
      6   6   0   0        -0.1086516006
      5   6   0   0         0.0311196972
      6   5   0   0         0.0311196972
      5   5   0   0        -0.0249494634
      7   7   0   0        -0.0148487681
      8   8   0   0        -0.0148487681
      2   2   0   0        -0.0013339708
      2   6   0   0        -0.0005805730
      6   2   0   0        -0.0005805730
      2   5   0   0         0.0004897217
      5   2   0   0         0.0004897217
      1   2   0   0         0.0004793622
      2   1   0   0         0.0004793622
      1   6   0   0         0.0003881729
      6   1   0   0         0.0003881729
      1   1   0   0        -0.0003129965
      3   8   0   0         0.0002188895
      4   7   0   0         0.0002188895
      7   4   0   0         0.0002188895
      8   3   0   0         0.0002188895
      3   3   0   0        -0.0001288875
      4   4   0   0        -0.0001288875
      1   5   0   0         0.0000975657
      5   1   0   0         0.0000975657
      0   0   0   0        -0.0000225098
      0   1   0   0         0.0000184752
      1   0   0   0         0.0000184752
      0   5   0   0         0.0000116348
      5   0   0   0         0.0000116348
      0   2   0   0        -0.0000046905
      2   0   0   0        -0.0000046905
      0   6   0   0         0.0000041500
      6   0   0   0         0.0000041500
      3   7   0   0         0.0000006224
      4   8   0   0        -0.0000006224
      7   3   0   0         0.0000006224
      8   4   0   0        -0.0000006224

    SCF energy       (wfn)                    = -455.135555834911543
    Reference energy (file100)                = -455.135555834927743

    Opposite-spin MP2 correlation energy      =   -0.013167948503054
    Same-spin MP2 correlation energy          =    0.000000000000000
    MP2 correlation energy                    =   -0.013167948503054
      * MP2 total energy                      = -455.148723783430796

    Opposite-spin CCSD correlation energy     =   -0.019601821149365
    Same-spin CCSD correlation energy         =    0.000000000000000
    CCSD correlation energy                   =   -0.019601821149365
      * CCSD total energy                     = -455.155157656077108


    Psi4 stopped on: Thursday, 05 March 2020 01:00PM
    Psi4 wall time for execution: 0:00:01.87

*** Psi4 exiting successfully. Buy a developer a beer!
