
    -----------------------------------------------------------------------
          Psi4: An Open-Source Ab Initio Electronic Structure Package
                               Psi4 1.3.2 release

                         Git: Rev {HEAD} ecbda83 


    R. M. Parrish, L. A. Burns, D. G. A. Smith, A. C. Simmonett,
    A. E. DePrince III, E. G. Hohenstein, U. Bozkaya, A. Yu. Sokolov,
    R. Di Remigio, R. M. Richard, J. F. Gonthier, A. M. James,
    H. R. McAlexander, A. Kumar, M. Saitow, X. Wang, B. P. Pritchard,
    P. Verma, H. F. Schaefer III, K. Patkowski, R. A. King, E. F. Valeev,
    F. A. Evangelista, J. M. Turney, T. D. Crawford, and C. D. Sherrill,
    J. Chem. Theory Comput. 13(7) pp 3185--3197 (2017).
    (doi: 10.1021/acs.jctc.7b00174)


                         Additional Contributions by
    P. Kraus, H. Kruse, M. H. Lechner, M. C. Schieber, R. A. Shaw,
    A. Alenaizan, R. Galvelis, Z. L. Glick, S. Lehtola, and J. P. Misiewicz

    -----------------------------------------------------------------------


    Psi4 started on: Thursday, 05 March 2020 02:22PM

    Process ID: 31060
    Host:       trurls-machine
    PSIDATADIR: /Users/teague/anaconda3/envs/gen_env/share/psi4
    Memory:     500.0 MiB
    Threads:    1
    
  ==> Input File <==

--------------------------------------------------------------------------
"""This is a template for psi4 input format."""
import numpy
import sys

from openfermion.config import *
from openfermion.hamiltonians import MolecularData
from openfermion.ops import general_basis_change

from numpy import array

sys.path.append('/Users/teague/.local/lib/python3.7/site-packages/openfermionpsi4')
from _psi4_conversion_functions import *


# Set memory that job can use in megabytes.
memory 8000 mb

# Initialize molecular data.
_description = 'NIST'
if _description == 'None':
    _description = None
molecule = MolecularData([('N', (1.7933, 1.002, 0.2911)), ('O', (2.4488, 0.0064, 0.4504)), ('O', (2.1294, 2.1711, 0.2571)), ('O', (0.4148, 0.7567, 0.1173)), ('H', (0.05, 1.6578, 0.0048))],
                         'sto-3g',
                         1,
                         0,
                         _description,
                          filename='molecule_data/HNO3_sto-3g_singlet_NIST')

# Set molecular geometry and symmetry.
molecule mol {
N 1.7933 1.002 0.2911
O 2.4488 0.0064 0.4504
O 2.1294 2.1711 0.2571
O 0.4148 0.7567 0.1173
H 0.05 1.6578 0.0048
symmetry c1
}
mol.set_multiplicity(1)
mol.set_molecular_charge(0)

# Set reference and guess.
if molecule.multiplicity == 1:
    set reference rhf
    set guess sad
else:
    set reference rohf
    set guess gwh

# Set global parameters of calculation.
set globals {
    basis sto-3g
    freeze_core false
    fail_on_maxiter True
    df_scf_guess false
    opdm true
    tpdm true
    soscf false
    scf_type pk
    maxiter 1e6
    num_amps_print 1e6
    r_convergence 1e-6
    d_convergence 1e-6
    e_convergence 1e-6
    ints_tolerance EQUALITY_TOLERANCE
    damping_percentage 0
}

# Run self-consistent field (SCF) calculation.
if True:
    try:
        hf_energy, hf_wavefunction = energy('scf', return_wfn=True)
        if False:
            print('Hartree-Fock energy for {} ({} electrons) is {}.'.format(
                molecule.name, molecule.n_electrons, hf_energy))
    except:
        if False:
            print('WARNING: SCF calculation failed.')
        else:
            raise
    finally:
        # Get orbitals and Fock matrix.
        molecule.hf_energy = hf_energy
        molecule.nuclear_repulsion = mol.nuclear_repulsion_energy()
        molecule.canonical_orbitals = numpy.asarray(hf_wavefunction.Ca())
        molecule.overlap_integrals = numpy.asarray(hf_wavefunction.S())
        molecule.n_orbitals = molecule.canonical_orbitals.shape[0]
        molecule.n_qubits = 2 * molecule.n_orbitals
        molecule.orbital_energies = numpy.asarray(hf_wavefunction.epsilon_a())
        molecule.fock_matrix = numpy.asarray(hf_wavefunction.Fa())

        # Get integrals using MintsHelper.
        mints = MintsHelper(hf_wavefunction.basisset())
        molecule.one_body_integrals = general_basis_change(
            numpy.asarray(mints.ao_kinetic()), molecule.canonical_orbitals, (1, 0))
        molecule.one_body_integrals += general_basis_change(
            numpy.asarray(mints.ao_potential()), molecule.canonical_orbitals, (1, 0))
        two_body_integrals = numpy.asarray(mints.ao_eri())
        two_body_integrals.reshape((molecule.n_orbitals, molecule.n_orbitals,
                                    molecule.n_orbitals, molecule.n_orbitals))
        two_body_integrals = numpy.einsum('psqr', two_body_integrals)
        two_body_integrals = general_basis_change(
            two_body_integrals, molecule.canonical_orbitals, (1, 1, 0, 0))
        molecule.two_body_integrals = two_body_integrals
        molecule.save()


# Perform MP2 energy calculation if there are at least two electrons.
if True:
    try:
        assert molecule.n_electrons > 1
        mp2_energy = energy('mp2')
        if False:
            print('MP2 energy for {} ({} electrons) is {}.'.format(
                molecule.name, molecule.n_electrons, mp2_energy))
    except:
        if False:
            print('WARNING: MP2 calculation failed.')
        else:
            raise
    else:
        molecule.mp2_energy = mp2_energy
        molecule.save()


# Perform configuration interaction singles and doubles (CISD) calculation.
if True:
    set qc_module detci
    try:
        cisd_energy, cisd_wavefunction = energy('cisd', return_wfn=True)
        if False:
            print('CISD energy for {} ({} electrons) is {}.'.format(
                molecule.name, molecule.n_electrons, cisd_energy))
    except:
        if False:
            print('WARNING: CISD calculation failed.')
        else:
            raise
    else:
        # For the functions below, "a" and "b" refer to "up and "down" spins.
        molecule.cisd_energy = cisd_energy

        # Get 1-RDM from CISD calculation.
        cisd_one_rdm_a = numpy.array(cisd_wavefunction.get_opdm(
            0, 0, 'A', True)).reshape(molecule.n_orbitals, molecule.n_orbitals)
        cisd_one_rdm_b = numpy.array(cisd_wavefunction.get_opdm(
            0, 0, 'B', True)).reshape(molecule.n_orbitals, molecule.n_orbitals)

        # Get 2-RDM from CISD calculation.
        cisd_two_rdm_aa = numpy.array(cisd_wavefunction.get_tpdm(
            'AA', False)).reshape(molecule.n_orbitals, molecule.n_orbitals,
                                  molecule.n_orbitals, molecule.n_orbitals)
        cisd_two_rdm_ab = numpy.array(cisd_wavefunction.get_tpdm(
            'AB', False)).reshape(molecule.n_orbitals, molecule.n_orbitals,
                                  molecule.n_orbitals, molecule.n_orbitals)
        cisd_two_rdm_bb = numpy.array(cisd_wavefunction.get_tpdm(
            'BB', False)).reshape(molecule.n_orbitals, molecule.n_orbitals,
                                  molecule.n_orbitals, molecule.n_orbitals)

        # Get overall RDMs.
        cisd_one_rdm, cisd_two_rdm = unpack_spatial_rdm(
            cisd_one_rdm_a, cisd_one_rdm_b, cisd_two_rdm_aa,
            cisd_two_rdm_ab, cisd_two_rdm_bb)

        # Store 1-RDM in molecule file, 2-RDM separately in other file.
        molecule.cisd_one_rdm = cisd_one_rdm
        molecule.cisd_two_rdm = cisd_two_rdm
        molecule.save()


# Perform exact diagonalization.
if True:
    set qc_module detci
    try:
        fci_energy, fci_wavefunction = energy('fci', return_wfn=True)
        if False:
            print('FCI energy for {} ({} electrons) is {}.'.format(
                molecule.name, molecule.n_electrons, fci_energy))
    except:
        if False:
            print('WARNING: FCI calculation failed.')
        else:
            raise
    finally:
        # For the functions below, "a" and "b" refer to "up and "down" spins.
        molecule.fci_energy = fci_energy

        # Get 1-RDM from FCI calculation.
        fci_one_rdm_a = numpy.array(fci_wavefunction.get_opdm(
            0, 0, 'A', True)).reshape(molecule.n_orbitals, molecule.n_orbitals)
        fci_one_rdm_b = numpy.array(fci_wavefunction.get_opdm(
            0, 0, 'B', True)).reshape(molecule.n_orbitals, molecule.n_orbitals)

        # Get 2-RDM from FCI calculation.
        fci_two_rdm_aa = numpy.array(fci_wavefunction.get_tpdm(
            'AA', False)).reshape(molecule.n_orbitals, molecule.n_orbitals,
                                  molecule.n_orbitals, molecule.n_orbitals)
        fci_two_rdm_ab = numpy.array(fci_wavefunction.get_tpdm(
            'AB', False)).reshape(molecule.n_orbitals, molecule.n_orbitals,
                                  molecule.n_orbitals, molecule.n_orbitals)
        fci_two_rdm_bb = numpy.array(fci_wavefunction.get_tpdm(
            'BB', False)).reshape(molecule.n_orbitals, molecule.n_orbitals,
                                  molecule.n_orbitals, molecule.n_orbitals)

        # Get overall RDMs.
        fci_one_rdm, fci_two_rdm = unpack_spatial_rdm(
            fci_one_rdm_a, fci_one_rdm_b,
            fci_two_rdm_aa, fci_two_rdm_ab, fci_two_rdm_bb)

        # Store 1-RDM in molecule file, 2-RDM separately in other file.
        molecule.fci_one_rdm = fci_one_rdm
        molecule.fci_two_rdm = fci_two_rdm
        molecule.save()


# Perform coupled cluster singles and doubles (CCSD) calculation.
if True:
    set qc_module ccenergy
    try:
        ccsd_energy = energy('ccsd')
        if False:
            print('CCSD energy for {} ({} electrons) is {}.'.format(
                molecule.name, molecule.n_electrons, ccsd_energy))
    except:
        if False:
            print('WARNING: CCSD calculation failed.')
        else:
            raise
    else:
        molecule.ccsd_energy = ccsd_energy

        # Merge CC amplitudes into molecule by parsing
        psi_filename = outfile_name()
        single_cc_amplitudes, double_cc_amplitudes = (
            parse_psi4_ccsd_amplitudes(
                2 * molecule.n_orbitals,
                molecule.get_n_alpha_electrons(),
                molecule.get_n_beta_electrons(),
                psi_filename))

        molecule.ccsd_single_amps = single_cc_amplitudes
        molecule.ccsd_double_amps = double_cc_amplitudes
        molecule.save()
--------------------------------------------------------------------------

  Memory set to   7.451 GiB by Python driver.

*** tstart() called on trurls-machine
*** at Thu Mar  5 14:22:29 2020

   => Loading Basis Set <=

    Name: STO-3G
    Role: ORBITAL
    Keyword: BASIS
    atoms 1   entry N          line    71 file /Users/teague/anaconda3/envs/gen_env/share/psi4/basis/sto-3g.gbs 
    atoms 2-4 entry O          line    81 file /Users/teague/anaconda3/envs/gen_env/share/psi4/basis/sto-3g.gbs 
    atoms 5   entry H          line    19 file /Users/teague/anaconda3/envs/gen_env/share/psi4/basis/sto-3g.gbs 


         ---------------------------------------------------------
                                   SCF
               by Justin Turney, Rob Parrish, Andy Simmonett
                          and Daniel G. A. Smith
                              RHF Reference
                        1 Threads,   7629 MiB Core
         ---------------------------------------------------------

  ==> Geometry <==

    Molecular point group: c1
    Full point group: C1

    Geometry (in Angstrom), charge = 0, multiplicity = 1:

       Center              X                  Y                   Z               Mass       
    ------------   -----------------  -----------------  -----------------  -----------------
         N            0.126125768066     0.007738681457     0.016894718696    14.003074004430
         O            0.781625768066    -0.987861318543     0.176194718696    15.994914619570
         O            0.462225768066     1.176838681457    -0.017105281304    15.994914619570
         O           -1.252374231934    -0.237561318543    -0.156905281304    15.994914619570
         H           -1.617174231934     0.663538681457    -0.269405281304     1.007825032230

  Running in c1 symmetry.

  Rotational constants: A =      0.42949  B =      0.40171  C =      0.20757 [cm^-1]
  Rotational constants: A =  12875.85014  B =  12042.81401  C =   6222.70390 [MHz]
  Nuclear repulsion =  125.752862226643572

  Charge       = 0
  Multiplicity = 1
  Electrons    = 32
  Nalpha       = 16
  Nbeta        = 16

  ==> Algorithm <==

  SCF Algorithm Type is PK.
  DIIS enabled.
  MOM disabled.
  Fractional occupation disabled.
  Guess Type is SAD.
  Energy threshold   = 1.00e-06
  Density threshold  = 1.00e-06
  Integral threshold = 0.00e+00

  ==> Primary Basis <==

  Basis Set: STO-3G
    Blend: STO-3G
    Number of shells: 13
    Number of basis function: 21
    Number of Cartesian functions: 21
    Spherical Harmonics?: true
    Max angular momentum: 1

  ==> Pre-Iterations <==

   -------------------------------------------------------
    Irrep   Nso     Nmo     Nalpha   Nbeta   Ndocc  Nsocc
   -------------------------------------------------------
     A         21      21       0       0       0       0
   -------------------------------------------------------
    Total      21      21      16      16      16       0
   -------------------------------------------------------

  ==> Integral Setup <==

  Using in-core PK algorithm.
   Calculation information:
      Number of atoms:                   5
      Number of AO shells:              13
      Number of primitives:             39
      Number of atomic orbitals:        21
      Number of basis functions:        21

      Integral cutoff                 1.00e-12
      Number of threads:                 1

  Performing in-core PK
  Using 53592 doubles for integral storage.
  We computed 3897 shell quartets total.
  Whereas there are 4186 unique shell quartets.

  ==> DiskJK: Disk-Based J/K Matrices <==

    J tasked:                  Yes
    K tasked:                  Yes
    wK tasked:                  No
    Memory [MiB]:             5722
    Schwarz Cutoff:          1E-12

    OpenMP threads:              1

  Minimum eigenvalue in the overlap matrix is 2.7523799311E-01.
  Using Symmetric Orthogonalization.

  SCF Guess: Superposition of Atomic Densities via on-the-fly atomic UHF.

  ==> Iterations <==

                        Total Energy        Delta E     RMS |[F,P]|

   @RHF iter SAD:  -273.92677197193706   -2.73927e+02   0.00000e+00 
   @RHF iter   1:  -275.32292220219841   -1.39615e+00   3.63260e-02 DIIS
   @RHF iter   2:  -275.57793978206814   -2.55018e-01   1.80781e-02 DIIS
   @RHF iter   3:  -275.65268782749320   -7.47480e-02   1.81264e-03 DIIS
   @RHF iter   4:  -275.65454348626400   -1.85566e-03   7.23282e-04 DIIS
   @RHF iter   5:  -275.65486184028344   -3.18354e-04   2.32073e-04 DIIS
   @RHF iter   6:  -275.65489293012934   -3.10898e-05   1.16169e-04 DIIS
   @RHF iter   7:  -275.65490071122838   -7.78110e-06   2.77384e-05 DIIS
   @RHF iter   8:  -275.65490137149055   -6.60262e-07   8.04668e-06 DIIS
   @RHF iter   9:  -275.65490141164105   -4.01505e-08   1.71557e-06 DIIS
   @RHF iter  10:  -275.65490141354462   -1.90357e-09   5.75575e-07 DIIS
  Energy and wave function converged.


  ==> Post-Iterations <==

    Orbital Energies [Eh]
    ---------------------

    Doubly Occupied:                                                      

       1A    -20.396597     2A    -20.325489     3A    -20.301847  
       4A    -15.742457     5A     -1.595291     6A     -1.364671  
       7A     -1.347424     8A     -0.855015     9A     -0.711331  
      10A     -0.710116    11A     -0.658723    12A     -0.561551  
      13A     -0.466887    14A     -0.399119    15A     -0.388305  
      16A     -0.328789  

    Virtual:                                                              

      17A      0.206887    18A      0.434945    19A      0.560947  
      20A      0.697360    21A      0.891684  

    Final Occupation by Irrep:
              A 
    DOCC [    16 ]

  @RHF Final Energy:  -275.65490141354462

   => Energetics <=

    Nuclear Repulsion Energy =            125.7528622266435718
    One-Electron Energy =                -630.5083072353825173
    Two-Electron Energy =                 229.1005435951943241
    Total Energy =                       -275.6549014135446214

Computation Completed


Properties will be evaluated at   0.000000,   0.000000,   0.000000 [a0]

Properties computed using the SCF density matrix

  Nuclear Dipole Moment: [e a0]
     X:    -1.5165      Y:     0.6218      Z:    -0.2526

  Electronic Dipole Moment: [e a0]
     X:     0.7810      Y:    -0.2142      Z:     0.1228

  Dipole Moment: [e a0]
     X:    -0.7354      Y:     0.4076      Z:    -0.1298     Total:     0.8508

  Dipole Moment: [D]
     X:    -1.8693      Y:     1.0361      Z:    -0.3300     Total:     2.1626


*** tstop() called on trurls-machine at Thu Mar  5 14:22:29 2020
Module time:
	user time   =       0.27 seconds =       0.00 minutes
	system time =       0.02 seconds =       0.00 minutes
	total time  =          0 seconds =       0.00 minutes
Total time:
	user time   =       0.27 seconds =       0.00 minutes
	system time =       0.02 seconds =       0.00 minutes
	total time  =          0 seconds =       0.00 minutes

*** tstart() called on trurls-machine
*** at Thu Mar  5 14:22:30 2020

   => Loading Basis Set <=

    Name: STO-3G
    Role: ORBITAL
    Keyword: BASIS
    atoms 1   entry N          line    71 file /Users/teague/anaconda3/envs/gen_env/share/psi4/basis/sto-3g.gbs 
    atoms 2-4 entry O          line    81 file /Users/teague/anaconda3/envs/gen_env/share/psi4/basis/sto-3g.gbs 
    atoms 5   entry H          line    19 file /Users/teague/anaconda3/envs/gen_env/share/psi4/basis/sto-3g.gbs 


         ---------------------------------------------------------
                                   SCF
               by Justin Turney, Rob Parrish, Andy Simmonett
                          and Daniel G. A. Smith
                              RHF Reference
                        1 Threads,   7629 MiB Core
         ---------------------------------------------------------

  ==> Geometry <==

    Molecular point group: c1
    Full point group: C1

    Geometry (in Angstrom), charge = 0, multiplicity = 1:

       Center              X                  Y                   Z               Mass       
    ------------   -----------------  -----------------  -----------------  -----------------
         N            0.126125768066     0.007738681457     0.016894718696    14.003074004430
         O            0.781625768066    -0.987861318543     0.176194718696    15.994914619570
         O            0.462225768066     1.176838681457    -0.017105281304    15.994914619570
         O           -1.252374231934    -0.237561318543    -0.156905281304    15.994914619570
         H           -1.617174231934     0.663538681457    -0.269405281304     1.007825032230

  Running in c1 symmetry.

  Rotational constants: A =      0.42949  B =      0.40171  C =      0.20757 [cm^-1]
  Rotational constants: A =  12875.85014  B =  12042.81401  C =   6222.70390 [MHz]
  Nuclear repulsion =  125.752862226643572

  Charge       = 0
  Multiplicity = 1
  Electrons    = 32
  Nalpha       = 16
  Nbeta        = 16

  ==> Algorithm <==

  SCF Algorithm Type is PK.
  DIIS enabled.
  MOM disabled.
  Fractional occupation disabled.
  Guess Type is SAD.
  Energy threshold   = 1.00e-06
  Density threshold  = 1.00e-06
  Integral threshold = 0.00e+00

  ==> Primary Basis <==

  Basis Set: STO-3G
    Blend: STO-3G
    Number of shells: 13
    Number of basis function: 21
    Number of Cartesian functions: 21
    Spherical Harmonics?: true
    Max angular momentum: 1

  ==> Pre-Iterations <==

   -------------------------------------------------------
    Irrep   Nso     Nmo     Nalpha   Nbeta   Ndocc  Nsocc
   -------------------------------------------------------
     A         21      21       0       0       0       0
   -------------------------------------------------------
    Total      21      21      16      16      16       0
   -------------------------------------------------------

  ==> Integral Setup <==

  Using in-core PK algorithm.
   Calculation information:
      Number of atoms:                   5
      Number of AO shells:              13
      Number of primitives:             39
      Number of atomic orbitals:        21
      Number of basis functions:        21

      Integral cutoff                 1.00e-12
      Number of threads:                 1

  Performing in-core PK
  Using 53592 doubles for integral storage.
  We computed 3897 shell quartets total.
  Whereas there are 4186 unique shell quartets.

  ==> DiskJK: Disk-Based J/K Matrices <==

    J tasked:                  Yes
    K tasked:                  Yes
    wK tasked:                  No
    Memory [MiB]:             5722
    Schwarz Cutoff:          1E-12

    OpenMP threads:              1

  Minimum eigenvalue in the overlap matrix is 2.7523799311E-01.
  Using Symmetric Orthogonalization.

  SCF Guess: Superposition of Atomic Densities via on-the-fly atomic UHF.

  ==> Iterations <==

                        Total Energy        Delta E     RMS |[F,P]|

   @RHF iter SAD:  -273.92677197193694   -2.73927e+02   0.00000e+00 
   @RHF iter   1:  -275.32292220219847   -1.39615e+00   3.63260e-02 DIIS
   @RHF iter   2:  -275.57793978206814   -2.55018e-01   1.80781e-02 DIIS
   @RHF iter   3:  -275.65268782749337   -7.47480e-02   1.81264e-03 DIIS
   @RHF iter   4:  -275.65454348626395   -1.85566e-03   7.23282e-04 DIIS
   @RHF iter   5:  -275.65486184028333   -3.18354e-04   2.32073e-04 DIIS
   @RHF iter   6:  -275.65489293012968   -3.10898e-05   1.16169e-04 DIIS
   @RHF iter   7:  -275.65490071122895   -7.78110e-06   2.77384e-05 DIIS
   @RHF iter   8:  -275.65490137149089   -6.60262e-07   8.04668e-06 DIIS
   @RHF iter   9:  -275.65490141164088   -4.01500e-08   1.71557e-06 DIIS
   @RHF iter  10:  -275.65490141354474   -1.90386e-09   5.75575e-07 DIIS
  Energy and wave function converged.


  ==> Post-Iterations <==

    Orbital Energies [Eh]
    ---------------------

    Doubly Occupied:                                                      

       1A    -20.396597     2A    -20.325489     3A    -20.301847  
       4A    -15.742457     5A     -1.595291     6A     -1.364671  
       7A     -1.347424     8A     -0.855015     9A     -0.711331  
      10A     -0.710116    11A     -0.658723    12A     -0.561551  
      13A     -0.466887    14A     -0.399119    15A     -0.388305  
      16A     -0.328789  

    Virtual:                                                              

      17A      0.206887    18A      0.434945    19A      0.560947  
      20A      0.697360    21A      0.891684  

    Final Occupation by Irrep:
              A 
    DOCC [    16 ]

  @RHF Final Energy:  -275.65490141354474

   => Energetics <=

    Nuclear Repulsion Energy =            125.7528622266435718
    One-Electron Energy =                -630.5083072353834268
    Two-Electron Energy =                 229.1005435951950915
    Total Energy =                       -275.6549014135447351

Computation Completed


Properties will be evaluated at   0.000000,   0.000000,   0.000000 [a0]

Properties computed using the SCF density matrix

  Nuclear Dipole Moment: [e a0]
     X:    -1.5165      Y:     0.6218      Z:    -0.2526

  Electronic Dipole Moment: [e a0]
     X:     0.7810      Y:    -0.2142      Z:     0.1228

  Dipole Moment: [e a0]
     X:    -0.7354      Y:     0.4076      Z:    -0.1298     Total:     0.8508

  Dipole Moment: [D]
     X:    -1.8693      Y:     1.0361      Z:    -0.3300     Total:     2.1626


*** tstop() called on trurls-machine at Thu Mar  5 14:22:30 2020
Module time:
	user time   =       0.39 seconds =       0.01 minutes
	system time =       0.02 seconds =       0.00 minutes
	total time  =          0 seconds =       0.00 minutes
Total time:
	user time   =       1.26 seconds =       0.02 minutes
	system time =       0.13 seconds =       0.00 minutes
	total time  =          1 seconds =       0.02 minutes

*** tstart() called on trurls-machine
*** at Thu Mar  5 14:22:30 2020


  //>>>>>>>>>>>>>>>>>>>>>>>>>>>>>>>>>>>//
  //               DFMP2               //
  //<<<<<<<<<<<<<<<<<<<<<<<<<<<<<<<<<<<//

   => Loading Basis Set <=

    Name: (STO-3G AUX)
    Role: RIFIT
    Keyword: DF_BASIS_MP2
    atoms 1   entry N          line   338 file /Users/teague/anaconda3/envs/gen_env/share/psi4/basis/def2-qzvpp-ri.gbs 
    atoms 2-4 entry O          line   406 file /Users/teague/anaconda3/envs/gen_env/share/psi4/basis/def2-qzvpp-ri.gbs 
    atoms 5   entry H          line    24 file /Users/teague/anaconda3/envs/gen_env/share/psi4/basis/def2-qzvpp-ri.gbs 

	 --------------------------------------------------------
	                          DF-MP2                         
	      2nd-Order Density-Fitted Moller-Plesset Theory     
	              RMP2 Wavefunction,   1 Threads             
	                                                         
	        Rob Parrish, Justin Turney, Andy Simmonett,      
	           Ed Hohenstein, and C. David Sherrill          
	 --------------------------------------------------------

   => Auxiliary Basis Set <=

  Basis Set: (STO-3G AUX)
    Blend: DEF2-QZVPP-RI
    Number of shells: 148
    Number of basis function: 620
    Number of Cartesian functions: 835
    Spherical Harmonics?: true
    Max angular momentum: 5

	 --------------------------------------------------------
	                 NBF =    21, NAUX =   620
	 --------------------------------------------------------
	   CLASS    FOCC     OCC    AOCC    AVIR     VIR    FVIR
	   PAIRS       0      16      16       5       5       0
	 --------------------------------------------------------

	-----------------------------------------------------------
	 ==================> DF-MP2 Energies <==================== 
	-----------------------------------------------------------
	 Reference Energy          =    -275.6549014135447351 [Eh]
	 Singles Energy            =      -0.0000000000000000 [Eh]
	 Same-Spin Energy          =      -0.0505691720937637 [Eh]
	 Opposite-Spin Energy      =      -0.1787866806959546 [Eh]
	 Correlation Energy        =      -0.2293558527897183 [Eh]
	 Total Energy              =    -275.8842572663344299 [Eh]
	-----------------------------------------------------------
	 ================> DF-SCS-MP2 Energies <================== 
	-----------------------------------------------------------
	 SCS Same-Spin Scale       =       0.3333333333333333 [-]
	 SCS Opposite-Spin Scale   =       1.2000000000000000 [-]
	 SCS Same-Spin Energy      =      -0.0168563906979212 [Eh]
	 SCS Opposite-Spin Energy  =      -0.2145440168351455 [Eh]
	 SCS Correlation Energy    =      -0.2314004075330668 [Eh]
	 SCS Total Energy          =    -275.8863018210777796 [Eh]
	-----------------------------------------------------------


*** tstop() called on trurls-machine at Thu Mar  5 14:22:30 2020
Module time:
	user time   =       0.42 seconds =       0.01 minutes
	system time =       0.01 seconds =       0.00 minutes
	total time  =          0 seconds =       0.00 minutes
Total time:
	user time   =       1.69 seconds =       0.03 minutes
	system time =       0.15 seconds =       0.00 minutes
	total time  =          1 seconds =       0.02 minutes

*** tstart() called on trurls-machine
*** at Thu Mar  5 14:22:31 2020

   => Loading Basis Set <=

    Name: STO-3G
    Role: ORBITAL
    Keyword: BASIS
    atoms 1   entry N          line    71 file /Users/teague/anaconda3/envs/gen_env/share/psi4/basis/sto-3g.gbs 
    atoms 2-4 entry O          line    81 file /Users/teague/anaconda3/envs/gen_env/share/psi4/basis/sto-3g.gbs 
    atoms 5   entry H          line    19 file /Users/teague/anaconda3/envs/gen_env/share/psi4/basis/sto-3g.gbs 


         ---------------------------------------------------------
                                   SCF
               by Justin Turney, Rob Parrish, Andy Simmonett
                          and Daniel G. A. Smith
                              RHF Reference
                        1 Threads,   7629 MiB Core
         ---------------------------------------------------------

  ==> Geometry <==

    Molecular point group: c1
    Full point group: C1

    Geometry (in Angstrom), charge = 0, multiplicity = 1:

       Center              X                  Y                   Z               Mass       
    ------------   -----------------  -----------------  -----------------  -----------------
         N            0.126125768066     0.007738681457     0.016894718696    14.003074004430
         O            0.781625768066    -0.987861318543     0.176194718696    15.994914619570
         O            0.462225768066     1.176838681457    -0.017105281304    15.994914619570
         O           -1.252374231934    -0.237561318543    -0.156905281304    15.994914619570
         H           -1.617174231934     0.663538681457    -0.269405281304     1.007825032230

  Running in c1 symmetry.

  Rotational constants: A =      0.42949  B =      0.40171  C =      0.20757 [cm^-1]
  Rotational constants: A =  12875.85014  B =  12042.81401  C =   6222.70390 [MHz]
  Nuclear repulsion =  125.752862226643572

  Charge       = 0
  Multiplicity = 1
  Electrons    = 32
  Nalpha       = 16
  Nbeta        = 16

  ==> Algorithm <==

  SCF Algorithm Type is PK.
  DIIS enabled.
  MOM disabled.
  Fractional occupation disabled.
  Guess Type is SAD.
  Energy threshold   = 1.00e-06
  Density threshold  = 1.00e-06
  Integral threshold = 0.00e+00

  ==> Primary Basis <==

  Basis Set: STO-3G
    Blend: STO-3G
    Number of shells: 13
    Number of basis function: 21
    Number of Cartesian functions: 21
    Spherical Harmonics?: true
    Max angular momentum: 1

  ==> Pre-Iterations <==

   -------------------------------------------------------
    Irrep   Nso     Nmo     Nalpha   Nbeta   Ndocc  Nsocc
   -------------------------------------------------------
     A         21      21       0       0       0       0
   -------------------------------------------------------
    Total      21      21      16      16      16       0
   -------------------------------------------------------

  ==> Integral Setup <==

  Using in-core PK algorithm.
   Calculation information:
      Number of atoms:                   5
      Number of AO shells:              13
      Number of primitives:             39
      Number of atomic orbitals:        21
      Number of basis functions:        21

      Integral cutoff                 1.00e-12
      Number of threads:                 1

  Performing in-core PK
  Using 53592 doubles for integral storage.
  We computed 3897 shell quartets total.
  Whereas there are 4186 unique shell quartets.

  ==> DiskJK: Disk-Based J/K Matrices <==

    J tasked:                  Yes
    K tasked:                  Yes
    wK tasked:                  No
    Memory [MiB]:             5722
    Schwarz Cutoff:          1E-12

    OpenMP threads:              1

  Minimum eigenvalue in the overlap matrix is 2.7523799311E-01.
  Using Symmetric Orthogonalization.

  SCF Guess: Superposition of Atomic Densities via on-the-fly atomic UHF.

  ==> Iterations <==

                        Total Energy        Delta E     RMS |[F,P]|

   @RHF iter SAD:  -273.92677197193694   -2.73927e+02   0.00000e+00 
   @RHF iter   1:  -275.32292220219847   -1.39615e+00   3.63260e-02 DIIS
   @RHF iter   2:  -275.57793978206814   -2.55018e-01   1.80781e-02 DIIS
   @RHF iter   3:  -275.65268782749337   -7.47480e-02   1.81264e-03 DIIS
   @RHF iter   4:  -275.65454348626395   -1.85566e-03   7.23282e-04 DIIS
   @RHF iter   5:  -275.65486184028333   -3.18354e-04   2.32073e-04 DIIS
   @RHF iter   6:  -275.65489293012968   -3.10898e-05   1.16169e-04 DIIS
   @RHF iter   7:  -275.65490071122895   -7.78110e-06   2.77384e-05 DIIS
   @RHF iter   8:  -275.65490137149089   -6.60262e-07   8.04668e-06 DIIS
   @RHF iter   9:  -275.65490141164088   -4.01500e-08   1.71557e-06 DIIS
   @RHF iter  10:  -275.65490141354474   -1.90386e-09   5.75575e-07 DIIS
  Energy and wave function converged.


  ==> Post-Iterations <==

    Orbital Energies [Eh]
    ---------------------

    Doubly Occupied:                                                      

       1A    -20.396597     2A    -20.325489     3A    -20.301847  
       4A    -15.742457     5A     -1.595291     6A     -1.364671  
       7A     -1.347424     8A     -0.855015     9A     -0.711331  
      10A     -0.710116    11A     -0.658723    12A     -0.561551  
      13A     -0.466887    14A     -0.399119    15A     -0.388305  
      16A     -0.328789  

    Virtual:                                                              

      17A      0.206887    18A      0.434945    19A      0.560947  
      20A      0.697360    21A      0.891684  

    Final Occupation by Irrep:
              A 
    DOCC [    16 ]

  @RHF Final Energy:  -275.65490141354474

   => Energetics <=

    Nuclear Repulsion Energy =            125.7528622266435718
    One-Electron Energy =                -630.5083072353834268
    Two-Electron Energy =                 229.1005435951950915
    Total Energy =                       -275.6549014135447351

Computation Completed


Properties will be evaluated at   0.000000,   0.000000,   0.000000 [a0]

Properties computed using the SCF density matrix

  Nuclear Dipole Moment: [e a0]
     X:    -1.5165      Y:     0.6218      Z:    -0.2526

  Electronic Dipole Moment: [e a0]
     X:     0.7810      Y:    -0.2142      Z:     0.1228

  Dipole Moment: [e a0]
     X:    -0.7354      Y:     0.4076      Z:    -0.1298     Total:     0.8508

  Dipole Moment: [D]
     X:    -1.8693      Y:     1.0361      Z:    -0.3300     Total:     2.1626


*** tstop() called on trurls-machine at Thu Mar  5 14:22:31 2020
Module time:
	user time   =       0.25 seconds =       0.00 minutes
	system time =       0.02 seconds =       0.00 minutes
	total time  =          0 seconds =       0.00 minutes
Total time:
	user time   =       2.29 seconds =       0.04 minutes
	system time =       0.24 seconds =       0.00 minutes
	total time  =          2 seconds =       0.03 minutes
 MINTS: Wrapper to libmints.
   by Justin Turney

   Calculation information:
      Number of threads:                 1
      Number of atoms:                   5
      Number of AO shells:              13
      Number of SO shells:              13
      Number of primitives:             39
      Number of atomic orbitals:        21
      Number of basis functions:        21

      Number of irreps:                  1
      Integral cutoff                 0.00e+00
      Number of functions per irrep: [  21 ]

 OEINTS: Overlap, kinetic, potential, dipole, and quadrupole integrals
         stored in file 35.

      Computing two-electron integrals...done
      Computed 26580 non-zero two-electron integrals.
        Stored in file 33.


         ---------------------------------------------------------
                          Configuration Interaction
                            (a 'D E T C I' module)

                 C. David Sherrill, Daniel G. A. Smith, and
                              Matt L. Leininger
         ---------------------------------------------------------


   ==> Parameters <==

    EX LEVEL       =        2      H0 BLOCKSIZE  =     1000
    VAL EX LEVEL   =        0      H0 GUESS SIZE =     1000
    H0COUPLINGSIZE =        0      H0 COUPLING   =       NO
    MAXITER        =       24      NUM PRINT     =       20
    NUM ROOTS      =        1      ICORE         =        1
    PRINT LVL      =        1      FCI           =       NO
    R CONV         = 1.00e-06      MIXED         =      YES
    E CONV         = 1.00e-06      MIXED4        =      YES
    R4S            =       NO      REPL OTF      =       NO
    DIAG METHOD    =      SEM      FOLLOW ROOT   =        0
    PRECONDITIONER = DAVIDSON      UPDATE        = DAVIDSON
    S              =   0.0000      Ms0           =      YES
    GUESS VECTOR   =  H0BLOCK      OPENTYPE      =     NONE
    COLLAPSE SIZE  =        1      HD AVG        = EVANGELISTI
    MAX NUM VECS   =       25      REF SYM       =     AUTO
    IOPEN        =       NO

    EX ALLOW       =  1  1 
    STATE AVERAGE  =  0(1.00) 

   ==> CI Orbital and Space information <==

    RAS1 LVL      =       15      A RAS3 MAX    =        2
    RAS1 MIN      =       30      B RAS3 MAX    =        2
    A RAS1 LVL    =       15      RAS4 LVL      =       21
    A RAS1 MIN    =       14      A RAS4 MAX    =        0
    A RAS1 MAX    =       16      B RAS4 MAX    =        0
    B RAS1 LVL    =       15      RAS4 MAX      =        0
    B RAS1 MIN    =       14      A RAS34 MAX   =        2
    B RAS1 MAX    =       16      B RAS34 MAX   =        2
    RAS3 LVL      =       16      RAS34 MAX     =        2
    RAS3 MAX      =        2
   ------------------------------------
               Space    Total     A
   ------------------------------------
                 Nso       21    21
                 Nmo       21    21
               Ndocc       16    16
               Nsocc        0     0
   ------------------------------------
              CI Spaces
   ------------------------------------
        Dropped DOCC        0     0
                RAS1       16    16
                RAS2        0     0
                RAS3        5     5
                RAS4        0     0
      Active (total)       21    21
        Dropped UOCC        0     0
   ------------------------------------

   ==> Setting up CI strings <==

    There are 1281 alpha and 1281 beta strings
    The CI space requires 8961 (8.96E+03) determinants and 6 blocks

   ==> Transforming CI integrals <==

	Presorting SO-basis two-electron integrals.
	Sorting File: SO Ints (nn|nn) nbuckets = 1
	Transforming the one-electron integrals and constructing Fock matrices
	Starting first half-transformation.
	Sorting half-transformed integrals.
	First half integral transformation complete.
	Starting second half-transformation.
	Two-electron integral transformation complete.

   ==> Starting CI iterations <==

    H0 Block Eigenvalue = -275.76972641

    Simultaneous Expansion Method (Block Davidson Method)
    Using 1 initial trial vectors

     Iter   Root       Total Energy       Delta E      C RMS

   @CI  0:     0   -275.769726410093   -4.0152E+02   5.4469E-01  
   @CI  1:     0   -275.879371786324   -1.0965E-01   1.0644E-01  
   @CI  2:     0   -275.885058767541   -5.6870E-03   3.8182E-02  
   @CI  3:     0   -275.885761012507   -7.0224E-04   1.1239E-02  
   @CI  4:     0   -275.885825041598   -6.4029E-05   3.1359E-03  
   @CI  5:     0   -275.885830262719   -5.2211E-06   1.1777E-03  
   @CI  6:     0   -275.885831085349   -8.2263E-07   4.1196E-04  
   @CI  7:     0   -275.885831183503   -9.8154E-08   1.4634E-04  
   @CI  8:     0   -275.885831195212   -1.1709E-08   5.4092E-05  
   @CI  9:     0   -275.885831196880   -1.6676E-09   1.9421E-05  
   @CI 10:     0   -275.885831197109   -2.2936E-10   6.9453E-06  
   @CI 11:     0   -275.885831197133   -2.4102E-11   2.2433E-06  
   @CI 12:     0   -275.885831197136   -2.4443E-12   7.1836E-07 c

   ==> Energetics <==

    SCF energy =         -275.654901413544735
    Total CI energy =    -275.885831197135587

   ==> CISD root 0 information <==

    CISD Root 0 energy =  -275.885831197135587

   The 20 most important determinants:

    *   1    0.939344  (    0,    0)  1AX 2AX 3AX 4AX 5AX 6AX 7AX 8AX 9AX 10AX 11AX 12AX 13AX 14AX 15AX 16AX 
    *   2   -0.181697  (    1,    1)  1AX 2AX 3AX 4AX 5AX 6AX 7AX 8AX 9AX 10AX 11AX 12AX 13AX 14AX 15AX 17AX 
    *   3   -0.057511  (   18,   18)  1AX 2AX 3AX 4AX 5AX 6AX 7AX 8AX 9AX 10AX 11AX 12AX 13AX 14AX 16AX 18AX 
    *   4   -0.048739  (    8,    8)  1AX 2AX 3AX 4AX 5AX 6AX 7AX 8AX 10AX 11AX 12AX 13AX 14AX 15AX 16AX 17AX 
    *   5   -0.041784  (    0,    8)  1AX 2AX 3AX 4AX 5AX 6AX 7AX 8AX 9AA 10AX 11AX 12AX 13AX 14AX 15AX 16AX 17AB 
    *   6   -0.041784  (    8,    0)  1AX 2AX 3AX 4AX 5AX 6AX 7AX 8AX 9AB 10AX 11AX 12AX 13AX 14AX 15AX 16AX 17AA 
    *   7   -0.040223  (   37,   37)  1AX 2AX 3AX 4AX 5AX 6AX 7AX 8AX 9AX 10AX 11AX 13AX 14AX 15AX 16AX 19AX 
    *   8    0.037259  (    1,   51)  1AX 2AX 3AX 4AX 5AX 6AX 7AX 8AX 9AX 10AX 11AX 12AX 13AX 14AA 15AX 16AB 17AA 20AB 
    *   9    0.037259  (   51,    1)  1AX 2AX 3AX 4AX 5AX 6AX 7AX 8AX 9AX 10AX 11AX 12AX 13AX 14AB 15AX 16AA 17AB 20AA 
    *  10   -0.034008  (    4,   18)  1AX 2AX 3AX 4AX 5AX 6AX 7AX 8AX 9AX 10AX 11AX 12AX 13AB 14AX 15AA 16AX 17AA 18AB 
    *  11   -0.034008  (   18,    4)  1AX 2AX 3AX 4AX 5AX 6AX 7AX 8AX 9AX 10AX 11AX 12AX 13AA 14AX 15AB 16AX 17AB 18AA 
    *  12   -0.032043  (   25,   25)  1AX 2AX 3AX 4AX 5AX 6AX 7AX 9AX 10AX 11AX 12AX 13AX 14AX 15AX 16AX 18AX 
    *  13    0.030709  (    0,  442)  1AX 2AX 3AX 4AX 5AX 6AX 7AX 8AX 9AX 10AX 11AX 12AX 13AX 14AA 15AX 16AA 17AB 20AB 
    *  14    0.030709  (  442,    0)  1AX 2AX 3AX 4AX 5AX 6AX 7AX 8AX 9AX 10AX 11AX 12AX 13AX 14AB 15AX 16AB 17AA 20AA 
    *  15    0.030145  (    0,   97)  1AX 2AX 3AX 4AX 5AX 6AX 7AX 8AX 9AX 10AX 11AX 12AX 13AA 14AX 15AA 16AX 17AB 18AB 
    *  16    0.030145  (   97,    0)  1AX 2AX 3AX 4AX 5AX 6AX 7AX 8AX 9AX 10AX 11AX 12AX 13AB 14AX 15AB 16AX 17AA 18AA 
    *  17   -0.029673  (   55,   55)  1AX 2AX 3AX 4AX 5AX 6AX 7AX 8AX 9AX 11AX 12AX 13AX 14AX 15AX 16AX 20AX 
    *  18   -0.026075  (    0,   18)  1AX 2AX 3AX 4AX 5AX 6AX 7AX 8AX 9AX 10AX 11AX 12AX 13AX 14AX 15AA 16AX 18AB 
    *  19   -0.026075  (   18,    0)  1AX 2AX 3AX 4AX 5AX 6AX 7AX 8AX 9AX 10AX 11AX 12AX 13AX 14AX 15AB 16AX 18AA 
    *  20   -0.024763  (   51,   51)  1AX 2AX 3AX 4AX 5AX 6AX 7AX 8AX 9AX 10AX 11AX 12AX 13AX 15AX 16AX 20AX 

		 "A good bug is a dead bug" 

			 - Starship Troopers

		 "I didn't write FORTRAN.  That's the problem."

			 - Edward Valeev

*** tstart() called on trurls-machine
*** at Thu Mar  5 14:22:33 2020

   => Loading Basis Set <=

    Name: STO-3G
    Role: ORBITAL
    Keyword: BASIS
    atoms 1   entry N          line    71 file /Users/teague/anaconda3/envs/gen_env/share/psi4/basis/sto-3g.gbs 
    atoms 2-4 entry O          line    81 file /Users/teague/anaconda3/envs/gen_env/share/psi4/basis/sto-3g.gbs 
    atoms 5   entry H          line    19 file /Users/teague/anaconda3/envs/gen_env/share/psi4/basis/sto-3g.gbs 


         ---------------------------------------------------------
                                   SCF
               by Justin Turney, Rob Parrish, Andy Simmonett
                          and Daniel G. A. Smith
                              RHF Reference
                        1 Threads,   7629 MiB Core
         ---------------------------------------------------------

  ==> Geometry <==

    Molecular point group: c1
    Full point group: C1

    Geometry (in Angstrom), charge = 0, multiplicity = 1:

       Center              X                  Y                   Z               Mass       
    ------------   -----------------  -----------------  -----------------  -----------------
         N            0.126125768066     0.007738681457     0.016894718696    14.003074004430
         O            0.781625768066    -0.987861318543     0.176194718696    15.994914619570
         O            0.462225768066     1.176838681457    -0.017105281304    15.994914619570
         O           -1.252374231934    -0.237561318543    -0.156905281304    15.994914619570
         H           -1.617174231934     0.663538681457    -0.269405281304     1.007825032230

  Running in c1 symmetry.

  Rotational constants: A =      0.42949  B =      0.40171  C =      0.20757 [cm^-1]
  Rotational constants: A =  12875.85014  B =  12042.81401  C =   6222.70390 [MHz]
  Nuclear repulsion =  125.752862226643572

  Charge       = 0
  Multiplicity = 1
  Electrons    = 32
  Nalpha       = 16
  Nbeta        = 16

  ==> Algorithm <==

  SCF Algorithm Type is PK.
  DIIS enabled.
  MOM disabled.
  Fractional occupation disabled.
  Guess Type is SAD.
  Energy threshold   = 1.00e-06
  Density threshold  = 1.00e-06
  Integral threshold = 0.00e+00

  ==> Primary Basis <==

  Basis Set: STO-3G
    Blend: STO-3G
    Number of shells: 13
    Number of basis function: 21
    Number of Cartesian functions: 21
    Spherical Harmonics?: true
    Max angular momentum: 1

  ==> Pre-Iterations <==

   -------------------------------------------------------
    Irrep   Nso     Nmo     Nalpha   Nbeta   Ndocc  Nsocc
   -------------------------------------------------------
     A         21      21       0       0       0       0
   -------------------------------------------------------
    Total      21      21      16      16      16       0
   -------------------------------------------------------

  ==> Integral Setup <==

  Using in-core PK algorithm.
   Calculation information:
      Number of atoms:                   5
      Number of AO shells:              13
      Number of primitives:             39
      Number of atomic orbitals:        21
      Number of basis functions:        21

      Integral cutoff                 1.00e-12
      Number of threads:                 1

  Performing in-core PK
  Using 53592 doubles for integral storage.
  We computed 3897 shell quartets total.
  Whereas there are 4186 unique shell quartets.

  ==> DiskJK: Disk-Based J/K Matrices <==

    J tasked:                  Yes
    K tasked:                  Yes
    wK tasked:                  No
    Memory [MiB]:             5722
    Schwarz Cutoff:          1E-12

    OpenMP threads:              1

  Minimum eigenvalue in the overlap matrix is 2.7523799311E-01.
  Using Symmetric Orthogonalization.

  SCF Guess: Superposition of Atomic Densities via on-the-fly atomic UHF.

  ==> Iterations <==

                        Total Energy        Delta E     RMS |[F,P]|

   @RHF iter SAD:  -273.92677197193706   -2.73927e+02   0.00000e+00 
   @RHF iter   1:  -275.32292220219830   -1.39615e+00   3.63260e-02 DIIS
   @RHF iter   2:  -275.57793978206792   -2.55018e-01   1.80781e-02 DIIS
   @RHF iter   3:  -275.65268782749291   -7.47480e-02   1.81264e-03 DIIS
   @RHF iter   4:  -275.65454348626383   -1.85566e-03   7.23282e-04 DIIS
   @RHF iter   5:  -275.65486184028344   -3.18354e-04   2.32073e-04 DIIS
   @RHF iter   6:  -275.65489293012928   -3.10898e-05   1.16169e-04 DIIS
   @RHF iter   7:  -275.65490071122855   -7.78110e-06   2.77384e-05 DIIS
   @RHF iter   8:  -275.65490137149044   -6.60262e-07   8.04668e-06 DIIS
   @RHF iter   9:  -275.65490141164082   -4.01504e-08   1.71557e-06 DIIS
   @RHF iter  10:  -275.65490141354462   -1.90380e-09   5.75575e-07 DIIS
  Energy and wave function converged.


  ==> Post-Iterations <==

    Orbital Energies [Eh]
    ---------------------

    Doubly Occupied:                                                      

       1A    -20.396597     2A    -20.325489     3A    -20.301847  
       4A    -15.742457     5A     -1.595291     6A     -1.364671  
       7A     -1.347424     8A     -0.855015     9A     -0.711331  
      10A     -0.710116    11A     -0.658723    12A     -0.561551  
      13A     -0.466887    14A     -0.399119    15A     -0.388305  
      16A     -0.328789  

    Virtual:                                                              

      17A      0.206887    18A      0.434945    19A      0.560947  
      20A      0.697360    21A      0.891684  

    Final Occupation by Irrep:
              A 
    DOCC [    16 ]

  @RHF Final Energy:  -275.65490141354462

   => Energetics <=

    Nuclear Repulsion Energy =            125.7528622266435718
    One-Electron Energy =                -630.5083072353829721
    Two-Electron Energy =                 229.1005435951947788
    Total Energy =                       -275.6549014135446214

Computation Completed


Properties will be evaluated at   0.000000,   0.000000,   0.000000 [a0]

Properties computed using the SCF density matrix

  Nuclear Dipole Moment: [e a0]
     X:    -1.5165      Y:     0.6218      Z:    -0.2526

  Electronic Dipole Moment: [e a0]
     X:     0.7810      Y:    -0.2142      Z:     0.1228

  Dipole Moment: [e a0]
     X:    -0.7354      Y:     0.4076      Z:    -0.1298     Total:     0.8508

  Dipole Moment: [D]
     X:    -1.8693      Y:     1.0361      Z:    -0.3300     Total:     2.1626


*** tstop() called on trurls-machine at Thu Mar  5 14:22:33 2020
Module time:
	user time   =       0.27 seconds =       0.00 minutes
	system time =       0.01 seconds =       0.00 minutes
	total time  =          0 seconds =       0.00 minutes
Total time:
	user time   =       4.42 seconds =       0.07 minutes
	system time =       0.37 seconds =       0.01 minutes
	total time  =          4 seconds =       0.07 minutes
 MINTS: Wrapper to libmints.
   by Justin Turney

   Calculation information:
      Number of threads:                 1
      Number of atoms:                   5
      Number of AO shells:              13
      Number of SO shells:              13
      Number of primitives:             39
      Number of atomic orbitals:        21
      Number of basis functions:        21

      Number of irreps:                  1
      Integral cutoff                 0.00e+00
      Number of functions per irrep: [  21 ]

 OEINTS: Overlap, kinetic, potential, dipole, and quadrupole integrals
         stored in file 35.

      Computing two-electron integrals...done
      Computed 26580 non-zero two-electron integrals.
        Stored in file 33.


         ---------------------------------------------------------
                          Configuration Interaction
                            (a 'D E T C I' module)

                 C. David Sherrill, Daniel G. A. Smith, and
                              Matt L. Leininger
         ---------------------------------------------------------


   ==> Parameters <==

    EX LEVEL       =       32      H0 BLOCKSIZE  =     1000
    VAL EX LEVEL   =        0      H0 GUESS SIZE =     1000
    H0COUPLINGSIZE =        0      H0 COUPLING   =       NO
    MAXITER        =       24      NUM PRINT     =       20
    NUM ROOTS      =        1      ICORE         =        1
    PRINT LVL      =        1      FCI           =      YES
    R CONV         = 1.00e-06      MIXED         =      YES
    E CONV         = 1.00e-06      MIXED4        =      YES
    R4S            =       NO      REPL OTF      =       NO
    DIAG METHOD    =      SEM      FOLLOW ROOT   =        0
    PRECONDITIONER = DAVIDSON      UPDATE        = DAVIDSON
    S              =   0.0000      Ms0           =      YES
    GUESS VECTOR   =  H0BLOCK      OPENTYPE      =     NONE
    COLLAPSE SIZE  =        1      HD AVG        = EVANGELISTI
    MAX NUM VECS   =       25      REF SYM       =     AUTO
    IOPEN        =       NO

    EX ALLOW       =  1  1  1  1  1  1  1  1  1  1  1  1  1  1  1  1  1  1  1  1  1  1  1  1  1  1  1  1  1  1  1  1 
    STATE AVERAGE  =  0(1.00) 

   ==> CI Orbital and Space information <==

   ------------------------------------
               Space    Total     A
   ------------------------------------
                 Nso       21    21
                 Nmo       21    21
               Ndocc       16    16
               Nsocc        0     0
   ------------------------------------
              CI Spaces
   ------------------------------------
        Dropped DOCC        0     0
              Active       21    21
        Dropped UOCC        0     0
   ------------------------------------

   ==> Setting up CI strings <==

    There are 20349 alpha and 20349 beta strings
    The CI space requires 414081801 (4.14E+08) determinants and 1 blocks

   ==> Transforming CI integrals <==

	Presorting SO-basis two-electron integrals.
	Sorting File: SO Ints (nn|nn) nbuckets = 1
	Transforming the one-electron integrals and constructing Fock matrices
	Starting first half-transformation.
	Sorting half-transformed integrals.
	First half integral transformation complete.
	Starting second half-transformation.
	Two-electron integral transformation complete.

   ==> Starting CI iterations <==

    H0 Block Eigenvalue = -275.77100141

    Simultaneous Expansion Method (Block Davidson Method)
    Using 1 initial trial vectors


Traceback (most recent call last):
  File "/Users/teague/anaconda3/envs/gen_env/bin/psi4", line 287, in <module>
    exec(content)
  File "<string>", line 172, in <module>

NameError: name 'fci_energy' is not defined


Printing out the relevant lines from the Psithon --> Python processed input file:
                print('WARNING: FCI calculation failed.')
            else:
                raise
        finally:
           
-->         molecule.fci_energy = fci_energy
           
            fci_one_rdm_a = numpy.array(fci_wavefunction.get_opdm(
                0, 0, 'A', True)).reshape(molecule.n_orbitals, molecule.n_orbitals)
            fci_one_rdm_b = numpy.array(fci_wavefunction.get_opdm(
                0, 0, 'B', True)).reshape(molecule.n_orbitals, molecule.n_orbitals)

    Psi4 stopped on: Thursday, 05 March 2020 02:22PM
    Psi4 wall time for execution: 0:00:15.09

*** Psi4 encountered an error. Buy a developer more coffee!
*** Resources and help at github.com/psi4/psi4.
