
    -----------------------------------------------------------------------
          Psi4: An Open-Source Ab Initio Electronic Structure Package
                               Psi4 1.3.2 release

                         Git: Rev {HEAD} ecbda83 


    R. M. Parrish, L. A. Burns, D. G. A. Smith, A. C. Simmonett,
    A. E. DePrince III, E. G. Hohenstein, U. Bozkaya, A. Yu. Sokolov,
    R. Di Remigio, R. M. Richard, J. F. Gonthier, A. M. James,
    H. R. McAlexander, A. Kumar, M. Saitow, X. Wang, B. P. Pritchard,
    P. Verma, H. F. Schaefer III, K. Patkowski, R. A. King, E. F. Valeev,
    F. A. Evangelista, J. M. Turney, T. D. Crawford, and C. D. Sherrill,
    J. Chem. Theory Comput. 13(7) pp 3185--3197 (2017).
    (doi: 10.1021/acs.jctc.7b00174)


                         Additional Contributions by
    P. Kraus, H. Kruse, M. H. Lechner, M. C. Schieber, R. A. Shaw,
    A. Alenaizan, R. Galvelis, Z. L. Glick, S. Lehtola, and J. P. Misiewicz

    -----------------------------------------------------------------------


    Psi4 started on: Wednesday, 04 March 2020 06:20PM

    Process ID: 32982
    Host:       trurls-machine
    PSIDATADIR: /Users/teague/anaconda3/envs/gen_env/share/psi4
    Memory:     500.0 MiB
    Threads:    1
    
  ==> Input File <==

--------------------------------------------------------------------------
"""This is a template for psi4 input format."""
import numpy
import sys

from openfermion.config import *
from openfermion.hamiltonians import MolecularData
from openfermion.ops import general_basis_change

from numpy import array

sys.path.append('/Users/teague/.local/lib/python3.7/site-packages/openfermionpsi4')
from _psi4_conversion_functions import *


# Set memory that job can use in megabytes.
memory 8000 mb

# Initialize molecular data.
_description = 'NIST'
if _description == 'None':
    _description = None
molecule = MolecularData([('O', (0.866, 0.5, 0.0)), ('O', (0.0, 0.0, 0.0))],
                         'sto-3g',
                         1,
                         0,
                         _description,
                          filename='molecule_data/HydrogenPeroxide_sto-3g_singlet_NIST')

# Set molecular geometry and symmetry.
molecule mol {
O 0.866 0.5 0.0
O 0.0 0.0 0.0
symmetry c1
}
mol.set_multiplicity(1)
mol.set_molecular_charge(0)

# Set reference and guess.
if molecule.multiplicity == 1:
    set reference rhf
    set guess sad
else:
    set reference rohf
    set guess gwh

# Set global parameters of calculation.
set globals {
    basis sto-3g
    freeze_core false
    fail_on_maxiter True
    df_scf_guess false
    opdm true
    tpdm true
    soscf false
    scf_type pk
    maxiter 1e6
    num_amps_print 1e6
    r_convergence 1e-6
    d_convergence 1e-6
    e_convergence 1e-6
    ints_tolerance EQUALITY_TOLERANCE
    damping_percentage 0
}

# Run self-consistent field (SCF) calculation.
if True:
    try:
        hf_energy, hf_wavefunction = energy('scf', return_wfn=True)
        if False:
            print('Hartree-Fock energy for {} ({} electrons) is {}.'.format(
                molecule.name, molecule.n_electrons, hf_energy))
    except:
        if False:
            print('WARNING: SCF calculation failed.')
        else:
            raise
    finally:
        # Get orbitals and Fock matrix.
        molecule.hf_energy = hf_energy
        molecule.nuclear_repulsion = mol.nuclear_repulsion_energy()
        molecule.canonical_orbitals = numpy.asarray(hf_wavefunction.Ca())
        molecule.overlap_integrals = numpy.asarray(hf_wavefunction.S())
        molecule.n_orbitals = molecule.canonical_orbitals.shape[0]
        molecule.n_qubits = 2 * molecule.n_orbitals
        molecule.orbital_energies = numpy.asarray(hf_wavefunction.epsilon_a())
        molecule.fock_matrix = numpy.asarray(hf_wavefunction.Fa())

        # Get integrals using MintsHelper.
        mints = MintsHelper(hf_wavefunction.basisset())
        molecule.one_body_integrals = general_basis_change(
            numpy.asarray(mints.ao_kinetic()), molecule.canonical_orbitals, (1, 0))
        molecule.one_body_integrals += general_basis_change(
            numpy.asarray(mints.ao_potential()), molecule.canonical_orbitals, (1, 0))
        two_body_integrals = numpy.asarray(mints.ao_eri())
        two_body_integrals.reshape((molecule.n_orbitals, molecule.n_orbitals,
                                    molecule.n_orbitals, molecule.n_orbitals))
        two_body_integrals = numpy.einsum('psqr', two_body_integrals)
        two_body_integrals = general_basis_change(
            two_body_integrals, molecule.canonical_orbitals, (1, 1, 0, 0))
        molecule.two_body_integrals = two_body_integrals
        molecule.save()


# Perform MP2 energy calculation if there are at least two electrons.
if True:
    try:
        assert molecule.n_electrons > 1
        mp2_energy = energy('mp2')
        if False:
            print('MP2 energy for {} ({} electrons) is {}.'.format(
                molecule.name, molecule.n_electrons, mp2_energy))
    except:
        if False:
            print('WARNING: MP2 calculation failed.')
        else:
            raise
    else:
        molecule.mp2_energy = mp2_energy
        molecule.save()


# Perform configuration interaction singles and doubles (CISD) calculation.
if True:
    set qc_module detci
    try:
        cisd_energy, cisd_wavefunction = energy('cisd', return_wfn=True)
        if False:
            print('CISD energy for {} ({} electrons) is {}.'.format(
                molecule.name, molecule.n_electrons, cisd_energy))
    except:
        if False:
            print('WARNING: CISD calculation failed.')
        else:
            raise
    else:
        # For the functions below, "a" and "b" refer to "up and "down" spins.
        molecule.cisd_energy = cisd_energy

        # Get 1-RDM from CISD calculation.
        cisd_one_rdm_a = numpy.array(cisd_wavefunction.get_opdm(
            0, 0, 'A', True)).reshape(molecule.n_orbitals, molecule.n_orbitals)
        cisd_one_rdm_b = numpy.array(cisd_wavefunction.get_opdm(
            0, 0, 'B', True)).reshape(molecule.n_orbitals, molecule.n_orbitals)

        # Get 2-RDM from CISD calculation.
        cisd_two_rdm_aa = numpy.array(cisd_wavefunction.get_tpdm(
            'AA', False)).reshape(molecule.n_orbitals, molecule.n_orbitals,
                                  molecule.n_orbitals, molecule.n_orbitals)
        cisd_two_rdm_ab = numpy.array(cisd_wavefunction.get_tpdm(
            'AB', False)).reshape(molecule.n_orbitals, molecule.n_orbitals,
                                  molecule.n_orbitals, molecule.n_orbitals)
        cisd_two_rdm_bb = numpy.array(cisd_wavefunction.get_tpdm(
            'BB', False)).reshape(molecule.n_orbitals, molecule.n_orbitals,
                                  molecule.n_orbitals, molecule.n_orbitals)

        # Get overall RDMs.
        cisd_one_rdm, cisd_two_rdm = unpack_spatial_rdm(
            cisd_one_rdm_a, cisd_one_rdm_b, cisd_two_rdm_aa,
            cisd_two_rdm_ab, cisd_two_rdm_bb)

        # Store 1-RDM in molecule file, 2-RDM separately in other file.
        molecule.cisd_one_rdm = cisd_one_rdm
        molecule.cisd_two_rdm = cisd_two_rdm
        molecule.save()


# Perform exact diagonalization.
if True:
    set qc_module detci
    try:
        fci_energy, fci_wavefunction = energy('fci', return_wfn=True)
        if False:
            print('FCI energy for {} ({} electrons) is {}.'.format(
                molecule.name, molecule.n_electrons, fci_energy))
    except:
        if False:
            print('WARNING: FCI calculation failed.')
        else:
            raise
    finally:
        # For the functions below, "a" and "b" refer to "up and "down" spins.
        molecule.fci_energy = fci_energy

        # Get 1-RDM from FCI calculation.
        fci_one_rdm_a = numpy.array(fci_wavefunction.get_opdm(
            0, 0, 'A', True)).reshape(molecule.n_orbitals, molecule.n_orbitals)
        fci_one_rdm_b = numpy.array(fci_wavefunction.get_opdm(
            0, 0, 'B', True)).reshape(molecule.n_orbitals, molecule.n_orbitals)

        # Get 2-RDM from FCI calculation.
        fci_two_rdm_aa = numpy.array(fci_wavefunction.get_tpdm(
            'AA', False)).reshape(molecule.n_orbitals, molecule.n_orbitals,
                                  molecule.n_orbitals, molecule.n_orbitals)
        fci_two_rdm_ab = numpy.array(fci_wavefunction.get_tpdm(
            'AB', False)).reshape(molecule.n_orbitals, molecule.n_orbitals,
                                  molecule.n_orbitals, molecule.n_orbitals)
        fci_two_rdm_bb = numpy.array(fci_wavefunction.get_tpdm(
            'BB', False)).reshape(molecule.n_orbitals, molecule.n_orbitals,
                                  molecule.n_orbitals, molecule.n_orbitals)

        # Get overall RDMs.
        fci_one_rdm, fci_two_rdm = unpack_spatial_rdm(
            fci_one_rdm_a, fci_one_rdm_b,
            fci_two_rdm_aa, fci_two_rdm_ab, fci_two_rdm_bb)

        # Store 1-RDM in molecule file, 2-RDM separately in other file.
        molecule.fci_one_rdm = fci_one_rdm
        molecule.fci_two_rdm = fci_two_rdm
        molecule.save()


# Perform coupled cluster singles and doubles (CCSD) calculation.
if True:
    set qc_module ccenergy
    try:
        ccsd_energy = energy('ccsd')
        if False:
            print('CCSD energy for {} ({} electrons) is {}.'.format(
                molecule.name, molecule.n_electrons, ccsd_energy))
    except:
        if False:
            print('WARNING: CCSD calculation failed.')
        else:
            raise
    else:
        molecule.ccsd_energy = ccsd_energy

        # Merge CC amplitudes into molecule by parsing
        psi_filename = outfile_name()
        single_cc_amplitudes, double_cc_amplitudes = (
            parse_psi4_ccsd_amplitudes(
                2 * molecule.n_orbitals,
                molecule.get_n_alpha_electrons(),
                molecule.get_n_beta_electrons(),
                psi_filename))

        molecule.ccsd_single_amps = single_cc_amplitudes
        molecule.ccsd_double_amps = double_cc_amplitudes
        molecule.save()
--------------------------------------------------------------------------

  Memory set to   7.451 GiB by Python driver.

*** tstart() called on trurls-machine
*** at Wed Mar  4 18:20:12 2020

   => Loading Basis Set <=

    Name: STO-3G
    Role: ORBITAL
    Keyword: BASIS
    atoms 1-2 entry O          line    81 file /Users/teague/anaconda3/envs/gen_env/share/psi4/basis/sto-3g.gbs 


         ---------------------------------------------------------
                                   SCF
               by Justin Turney, Rob Parrish, Andy Simmonett
                          and Daniel G. A. Smith
                              RHF Reference
                        1 Threads,   7629 MiB Core
         ---------------------------------------------------------

  ==> Geometry <==

    Molecular point group: c1
    Full point group: D_inf_h

    Geometry (in Angstrom), charge = 0, multiplicity = 1:

       Center              X                  Y                   Z               Mass       
    ------------   -----------------  -----------------  -----------------  -----------------
         O            0.499988999879     0.000000000000     0.000000000000    15.994914619570
         O           -0.499988999879    -0.000000000000     0.000000000000    15.994914619570

  Running in c1 symmetry.

  Rotational constants: A = ************  B =      2.10797  C =      2.10797 [cm^-1]
  Rotational constants: A = ************  B =  63195.24155  C =  63195.24155 [MHz]
  Nuclear repulsion =   33.868086588981200

  Charge       = 0
  Multiplicity = 1
  Electrons    = 16
  Nalpha       = 8
  Nbeta        = 8

  ==> Algorithm <==

  SCF Algorithm Type is PK.
  DIIS enabled.
  MOM disabled.
  Fractional occupation disabled.
  Guess Type is SAD.
  Energy threshold   = 1.00e-06
  Density threshold  = 1.00e-06
  Integral threshold = 0.00e+00

  ==> Primary Basis <==

  Basis Set: STO-3G
    Blend: STO-3G
    Number of shells: 6
    Number of basis function: 10
    Number of Cartesian functions: 10
    Spherical Harmonics?: true
    Max angular momentum: 1

  ==> Pre-Iterations <==

   -------------------------------------------------------
    Irrep   Nso     Nmo     Nalpha   Nbeta   Ndocc  Nsocc
   -------------------------------------------------------
     A         10      10       0       0       0       0
   -------------------------------------------------------
    Total      10      10       8       8       8       0
   -------------------------------------------------------

  ==> Integral Setup <==

  Using in-core PK algorithm.
   Calculation information:
      Number of atoms:                   2
      Number of AO shells:               6
      Number of primitives:             18
      Number of atomic orbitals:        10
      Number of basis functions:        10

      Integral cutoff                 1.00e-12
      Number of threads:                 1

  Performing in-core PK
  Using 3080 doubles for integral storage.
  We computed 231 shell quartets total.
  Whereas there are 231 unique shell quartets.

  ==> DiskJK: Disk-Based J/K Matrices <==

    J tasked:                  Yes
    K tasked:                  Yes
    wK tasked:                  No
    Memory [MiB]:             5722
    Schwarz Cutoff:          1E-12

    OpenMP threads:              1

  Minimum eigenvalue in the overlap matrix is 1.9669358667E-01.
  Using Symmetric Orthogonalization.

  SCF Guess: Superposition of Atomic Densities via on-the-fly atomic UHF.

  ==> Iterations <==

                        Total Energy        Delta E     RMS |[F,P]|

   @RHF iter SAD:  -147.43612575243725   -1.47436e+02   0.00000e+00 
   @RHF iter   1:  -147.35586195371232    8.02638e-02   1.51382e-02 DIIS
   @RHF iter   2:  -147.36698626292835   -1.11243e-02   3.01774e-03 DIIS
   @RHF iter   3:  -147.36752261041772   -5.36347e-04   2.02166e-04 DIIS
   @RHF iter   4:  -147.36752457803831   -1.96762e-06   3.91388e-07 DIIS
   @RHF iter   5:  -147.36752457804664   -8.32756e-12   6.24017e-10 DIIS
  Energy and wave function converged.


  ==> Post-Iterations <==

    Orbital Energies [Eh]
    ---------------------

    Doubly Occupied:                                                      

       1A    -20.490151     2A    -20.489420     3A     -1.808304  
       4A     -0.941542     5A     -0.784229     6A     -0.688519  
       7A     -0.655402     8A     -0.260458  

    Virtual:                                                              

       9A      0.286034    10A      1.208631  

    Final Occupation by Irrep:
              A 
    DOCC [     8 ]

  @RHF Final Energy:  -147.36752457804664

   => Energetics <=

    Nuclear Repulsion Energy =             33.8680865889811997
    One-Electron Energy =                -270.2351725761650414
    Two-Electron Energy =                  88.9995614091371863
    Total Energy =                       -147.3675245780466412

Computation Completed


Properties will be evaluated at   0.000000,   0.000000,   0.000000 [a0]

Properties computed using the SCF density matrix

  Nuclear Dipole Moment: [e a0]
     X:     0.0000      Y:     0.0000      Z:     0.0000

  Electronic Dipole Moment: [e a0]
     X:    -0.0000      Y:     0.0000      Z:     0.0000

  Dipole Moment: [e a0]
     X:    -0.0000      Y:     0.0000      Z:     0.0000     Total:     0.0000

  Dipole Moment: [D]
     X:    -0.0000      Y:     0.0000      Z:     0.0000     Total:     0.0000


*** tstop() called on trurls-machine at Wed Mar  4 18:20:12 2020
Module time:
	user time   =       0.13 seconds =       0.00 minutes
	system time =       0.01 seconds =       0.00 minutes
	total time  =          0 seconds =       0.00 minutes
Total time:
	user time   =       0.13 seconds =       0.00 minutes
	system time =       0.01 seconds =       0.00 minutes
	total time  =          0 seconds =       0.00 minutes

*** tstart() called on trurls-machine
*** at Wed Mar  4 18:20:13 2020

   => Loading Basis Set <=

    Name: STO-3G
    Role: ORBITAL
    Keyword: BASIS
    atoms 1-2 entry O          line    81 file /Users/teague/anaconda3/envs/gen_env/share/psi4/basis/sto-3g.gbs 


         ---------------------------------------------------------
                                   SCF
               by Justin Turney, Rob Parrish, Andy Simmonett
                          and Daniel G. A. Smith
                              RHF Reference
                        1 Threads,   7629 MiB Core
         ---------------------------------------------------------

  ==> Geometry <==

    Molecular point group: c1
    Full point group: D_inf_h

    Geometry (in Angstrom), charge = 0, multiplicity = 1:

       Center              X                  Y                   Z               Mass       
    ------------   -----------------  -----------------  -----------------  -----------------
         O            0.499988999879     0.000000000000     0.000000000000    15.994914619570
         O           -0.499988999879    -0.000000000000     0.000000000000    15.994914619570

  Running in c1 symmetry.

  Rotational constants: A = ************  B =      2.10797  C =      2.10797 [cm^-1]
  Rotational constants: A = ************  B =  63195.24155  C =  63195.24155 [MHz]
  Nuclear repulsion =   33.868086588981200

  Charge       = 0
  Multiplicity = 1
  Electrons    = 16
  Nalpha       = 8
  Nbeta        = 8

  ==> Algorithm <==

  SCF Algorithm Type is PK.
  DIIS enabled.
  MOM disabled.
  Fractional occupation disabled.
  Guess Type is SAD.
  Energy threshold   = 1.00e-06
  Density threshold  = 1.00e-06
  Integral threshold = 0.00e+00

  ==> Primary Basis <==

  Basis Set: STO-3G
    Blend: STO-3G
    Number of shells: 6
    Number of basis function: 10
    Number of Cartesian functions: 10
    Spherical Harmonics?: true
    Max angular momentum: 1

  ==> Pre-Iterations <==

   -------------------------------------------------------
    Irrep   Nso     Nmo     Nalpha   Nbeta   Ndocc  Nsocc
   -------------------------------------------------------
     A         10      10       0       0       0       0
   -------------------------------------------------------
    Total      10      10       8       8       8       0
   -------------------------------------------------------

  ==> Integral Setup <==

  Using in-core PK algorithm.
   Calculation information:
      Number of atoms:                   2
      Number of AO shells:               6
      Number of primitives:             18
      Number of atomic orbitals:        10
      Number of basis functions:        10

      Integral cutoff                 1.00e-12
      Number of threads:                 1

  Performing in-core PK
  Using 3080 doubles for integral storage.
  We computed 231 shell quartets total.
  Whereas there are 231 unique shell quartets.

  ==> DiskJK: Disk-Based J/K Matrices <==

    J tasked:                  Yes
    K tasked:                  Yes
    wK tasked:                  No
    Memory [MiB]:             5722
    Schwarz Cutoff:          1E-12

    OpenMP threads:              1

  Minimum eigenvalue in the overlap matrix is 1.9669358667E-01.
  Using Symmetric Orthogonalization.

  SCF Guess: Superposition of Atomic Densities via on-the-fly atomic UHF.

  ==> Iterations <==

                        Total Energy        Delta E     RMS |[F,P]|

   @RHF iter SAD:  -147.43612575243725   -1.47436e+02   0.00000e+00 
   @RHF iter   1:  -147.35586195371232    8.02638e-02   1.51382e-02 DIIS
   @RHF iter   2:  -147.36698626292835   -1.11243e-02   3.01774e-03 DIIS
   @RHF iter   3:  -147.36752261041772   -5.36347e-04   2.02166e-04 DIIS
   @RHF iter   4:  -147.36752457803831   -1.96762e-06   3.91388e-07 DIIS
   @RHF iter   5:  -147.36752457804664   -8.32756e-12   6.24017e-10 DIIS
  Energy and wave function converged.


  ==> Post-Iterations <==

    Orbital Energies [Eh]
    ---------------------

    Doubly Occupied:                                                      

       1A    -20.490151     2A    -20.489420     3A     -1.808304  
       4A     -0.941542     5A     -0.784229     6A     -0.688519  
       7A     -0.655402     8A     -0.260458  

    Virtual:                                                              

       9A      0.286034    10A      1.208631  

    Final Occupation by Irrep:
              A 
    DOCC [     8 ]

  @RHF Final Energy:  -147.36752457804664

   => Energetics <=

    Nuclear Repulsion Energy =             33.8680865889811997
    One-Electron Energy =                -270.2351725761650414
    Two-Electron Energy =                  88.9995614091371863
    Total Energy =                       -147.3675245780466412

Computation Completed


Properties will be evaluated at   0.000000,   0.000000,   0.000000 [a0]

Properties computed using the SCF density matrix

  Nuclear Dipole Moment: [e a0]
     X:     0.0000      Y:     0.0000      Z:     0.0000

  Electronic Dipole Moment: [e a0]
     X:    -0.0000      Y:     0.0000      Z:     0.0000

  Dipole Moment: [e a0]
     X:    -0.0000      Y:     0.0000      Z:     0.0000     Total:     0.0000

  Dipole Moment: [D]
     X:    -0.0000      Y:     0.0000      Z:     0.0000     Total:     0.0000


*** tstop() called on trurls-machine at Wed Mar  4 18:20:13 2020
Module time:
	user time   =       0.13 seconds =       0.00 minutes
	system time =       0.00 seconds =       0.00 minutes
	total time  =          0 seconds =       0.00 minutes
Total time:
	user time   =       0.34 seconds =       0.01 minutes
	system time =       0.03 seconds =       0.00 minutes
	total time  =          1 seconds =       0.02 minutes

*** tstart() called on trurls-machine
*** at Wed Mar  4 18:20:13 2020


  //>>>>>>>>>>>>>>>>>>>>>>>>>>>>>>>>>>>//
  //               DFMP2               //
  //<<<<<<<<<<<<<<<<<<<<<<<<<<<<<<<<<<<//

   => Loading Basis Set <=

    Name: (STO-3G AUX)
    Role: RIFIT
    Keyword: DF_BASIS_MP2
    atoms 1-2 entry O          line   406 file /Users/teague/anaconda3/envs/gen_env/share/psi4/basis/def2-qzvpp-ri.gbs 

	 --------------------------------------------------------
	                          DF-MP2                         
	      2nd-Order Density-Fitted Moller-Plesset Theory     
	              RMP2 Wavefunction,   1 Threads             
	                                                         
	        Rob Parrish, Justin Turney, Andy Simmonett,      
	           Ed Hohenstein, and C. David Sherrill          
	 --------------------------------------------------------

   => Auxiliary Basis Set <=

  Basis Set: (STO-3G AUX)
    Blend: DEF2-QZVPP-RI
    Number of shells: 66
    Number of basis function: 282
    Number of Cartesian functions: 382
    Spherical Harmonics?: true
    Max angular momentum: 5

	 --------------------------------------------------------
	                 NBF =    10, NAUX =   282
	 --------------------------------------------------------
	   CLASS    FOCC     OCC    AOCC    AVIR     VIR    FVIR
	   PAIRS       0       8       8       2       2       0
	 --------------------------------------------------------

	-----------------------------------------------------------
	 ==================> DF-MP2 Energies <==================== 
	-----------------------------------------------------------
	 Reference Energy          =    -147.3675245780466412 [Eh]
	 Singles Energy            =      -0.0000000000000000 [Eh]
	 Same-Spin Energy          =      -0.0130579616297438 [Eh]
	 Opposite-Spin Energy      =      -0.0600207422987637 [Eh]
	 Correlation Energy        =      -0.0730787039285075 [Eh]
	 Total Energy              =    -147.4406032819751431 [Eh]
	-----------------------------------------------------------
	 ================> DF-SCS-MP2 Energies <================== 
	-----------------------------------------------------------
	 SCS Same-Spin Scale       =       0.3333333333333333 [-]
	 SCS Opposite-Spin Scale   =       1.2000000000000000 [-]
	 SCS Same-Spin Energy      =      -0.0043526538765813 [Eh]
	 SCS Opposite-Spin Energy  =      -0.0720248907585165 [Eh]
	 SCS Correlation Energy    =      -0.0763775446350977 [Eh]
	 SCS Total Energy          =    -147.4439021226817488 [Eh]
	-----------------------------------------------------------


*** tstop() called on trurls-machine at Wed Mar  4 18:20:13 2020
Module time:
	user time   =       0.08 seconds =       0.00 minutes
	system time =       0.01 seconds =       0.00 minutes
	total time  =          0 seconds =       0.00 minutes
Total time:
	user time   =       0.42 seconds =       0.01 minutes
	system time =       0.04 seconds =       0.00 minutes
	total time  =          1 seconds =       0.02 minutes

*** tstart() called on trurls-machine
*** at Wed Mar  4 18:20:13 2020

   => Loading Basis Set <=

    Name: STO-3G
    Role: ORBITAL
    Keyword: BASIS
    atoms 1-2 entry O          line    81 file /Users/teague/anaconda3/envs/gen_env/share/psi4/basis/sto-3g.gbs 


         ---------------------------------------------------------
                                   SCF
               by Justin Turney, Rob Parrish, Andy Simmonett
                          and Daniel G. A. Smith
                              RHF Reference
                        1 Threads,   7629 MiB Core
         ---------------------------------------------------------

  ==> Geometry <==

    Molecular point group: c1
    Full point group: D_inf_h

    Geometry (in Angstrom), charge = 0, multiplicity = 1:

       Center              X                  Y                   Z               Mass       
    ------------   -----------------  -----------------  -----------------  -----------------
         O            0.499988999879     0.000000000000     0.000000000000    15.994914619570
         O           -0.499988999879    -0.000000000000     0.000000000000    15.994914619570

  Running in c1 symmetry.

  Rotational constants: A = ************  B =      2.10797  C =      2.10797 [cm^-1]
  Rotational constants: A = ************  B =  63195.24155  C =  63195.24155 [MHz]
  Nuclear repulsion =   33.868086588981200

  Charge       = 0
  Multiplicity = 1
  Electrons    = 16
  Nalpha       = 8
  Nbeta        = 8

  ==> Algorithm <==

  SCF Algorithm Type is PK.
  DIIS enabled.
  MOM disabled.
  Fractional occupation disabled.
  Guess Type is SAD.
  Energy threshold   = 1.00e-06
  Density threshold  = 1.00e-06
  Integral threshold = 0.00e+00

  ==> Primary Basis <==

  Basis Set: STO-3G
    Blend: STO-3G
    Number of shells: 6
    Number of basis function: 10
    Number of Cartesian functions: 10
    Spherical Harmonics?: true
    Max angular momentum: 1

  ==> Pre-Iterations <==

   -------------------------------------------------------
    Irrep   Nso     Nmo     Nalpha   Nbeta   Ndocc  Nsocc
   -------------------------------------------------------
     A         10      10       0       0       0       0
   -------------------------------------------------------
    Total      10      10       8       8       8       0
   -------------------------------------------------------

  ==> Integral Setup <==

  Using in-core PK algorithm.
   Calculation information:
      Number of atoms:                   2
      Number of AO shells:               6
      Number of primitives:             18
      Number of atomic orbitals:        10
      Number of basis functions:        10

      Integral cutoff                 1.00e-12
      Number of threads:                 1

  Performing in-core PK
  Using 3080 doubles for integral storage.
  We computed 231 shell quartets total.
  Whereas there are 231 unique shell quartets.

  ==> DiskJK: Disk-Based J/K Matrices <==

    J tasked:                  Yes
    K tasked:                  Yes
    wK tasked:                  No
    Memory [MiB]:             5722
    Schwarz Cutoff:          1E-12

    OpenMP threads:              1

  Minimum eigenvalue in the overlap matrix is 1.9669358667E-01.
  Using Symmetric Orthogonalization.

  SCF Guess: Superposition of Atomic Densities via on-the-fly atomic UHF.

  ==> Iterations <==

                        Total Energy        Delta E     RMS |[F,P]|

   @RHF iter SAD:  -147.43612575243725   -1.47436e+02   0.00000e+00 
   @RHF iter   1:  -147.35586195371232    8.02638e-02   1.51382e-02 DIIS
   @RHF iter   2:  -147.36698626292835   -1.11243e-02   3.01774e-03 DIIS
   @RHF iter   3:  -147.36752261041772   -5.36347e-04   2.02166e-04 DIIS
   @RHF iter   4:  -147.36752457803831   -1.96762e-06   3.91388e-07 DIIS
   @RHF iter   5:  -147.36752457804664   -8.32756e-12   6.24017e-10 DIIS
  Energy and wave function converged.


  ==> Post-Iterations <==

    Orbital Energies [Eh]
    ---------------------

    Doubly Occupied:                                                      

       1A    -20.490151     2A    -20.489420     3A     -1.808304  
       4A     -0.941542     5A     -0.784229     6A     -0.688519  
       7A     -0.655402     8A     -0.260458  

    Virtual:                                                              

       9A      0.286034    10A      1.208631  

    Final Occupation by Irrep:
              A 
    DOCC [     8 ]

  @RHF Final Energy:  -147.36752457804664

   => Energetics <=

    Nuclear Repulsion Energy =             33.8680865889811997
    One-Electron Energy =                -270.2351725761650414
    Two-Electron Energy =                  88.9995614091371863
    Total Energy =                       -147.3675245780466412

Computation Completed


Properties will be evaluated at   0.000000,   0.000000,   0.000000 [a0]

Properties computed using the SCF density matrix

  Nuclear Dipole Moment: [e a0]
     X:     0.0000      Y:     0.0000      Z:     0.0000

  Electronic Dipole Moment: [e a0]
     X:    -0.0000      Y:     0.0000      Z:     0.0000

  Dipole Moment: [e a0]
     X:    -0.0000      Y:     0.0000      Z:     0.0000     Total:     0.0000

  Dipole Moment: [D]
     X:    -0.0000      Y:     0.0000      Z:     0.0000     Total:     0.0000


*** tstop() called on trurls-machine at Wed Mar  4 18:20:13 2020
Module time:
	user time   =       0.12 seconds =       0.00 minutes
	system time =       0.01 seconds =       0.00 minutes
	total time  =          0 seconds =       0.00 minutes
Total time:
	user time   =       0.59 seconds =       0.01 minutes
	system time =       0.05 seconds =       0.00 minutes
	total time  =          1 seconds =       0.02 minutes
 MINTS: Wrapper to libmints.
   by Justin Turney

   Calculation information:
      Number of threads:                 1
      Number of atoms:                   2
      Number of AO shells:               6
      Number of SO shells:               6
      Number of primitives:             18
      Number of atomic orbitals:        10
      Number of basis functions:        10

      Number of irreps:                  1
      Integral cutoff                 0.00e+00
      Number of functions per irrep: [  10 ]

 OEINTS: Overlap, kinetic, potential, dipole, and quadrupole integrals
         stored in file 35.

      Computing two-electron integrals...done
      Computed 834 non-zero two-electron integrals.
        Stored in file 33.


         ---------------------------------------------------------
                          Configuration Interaction
                            (a 'D E T C I' module)

                 C. David Sherrill, Daniel G. A. Smith, and
                              Matt L. Leininger
         ---------------------------------------------------------


   ==> Parameters <==

    EX LEVEL       =        2      H0 BLOCKSIZE  =     1000
    VAL EX LEVEL   =        0      H0 GUESS SIZE =     1000
    H0COUPLINGSIZE =        0      H0 COUPLING   =       NO
    MAXITER        =       24      NUM PRINT     =       20
    NUM ROOTS      =        1      ICORE         =        1
    PRINT LVL      =        1      FCI           =       NO
    R CONV         = 1.00e-06      MIXED         =      YES
    E CONV         = 1.00e-06      MIXED4        =      YES
    R4S            =       NO      REPL OTF      =       NO
    DIAG METHOD    =      SEM      FOLLOW ROOT   =        0
    PRECONDITIONER = DAVIDSON      UPDATE        = DAVIDSON
    S              =   0.0000      Ms0           =      YES
    GUESS VECTOR   =  H0BLOCK      OPENTYPE      =     NONE
    COLLAPSE SIZE  =        1      HD AVG        = EVANGELISTI
    MAX NUM VECS   =       25      REF SYM       =     AUTO
    IOPEN        =       NO

    EX ALLOW       =  1  1 
    STATE AVERAGE  =  0(1.00) 

   ==> CI Orbital and Space information <==

    RAS1 LVL      =        7      A RAS3 MAX    =        2
    RAS1 MIN      =       14      B RAS3 MAX    =        2
    A RAS1 LVL    =        7      RAS4 LVL      =       10
    A RAS1 MIN    =        6      A RAS4 MAX    =        0
    A RAS1 MAX    =        8      B RAS4 MAX    =        0
    B RAS1 LVL    =        7      RAS4 MAX      =        0
    B RAS1 MIN    =        6      A RAS34 MAX   =        2
    B RAS1 MAX    =        8      B RAS34 MAX   =        2
    RAS3 LVL      =        8      RAS34 MAX     =        2
    RAS3 MAX      =        2
   ------------------------------------
               Space    Total     A
   ------------------------------------
                 Nso       10    10
                 Nmo       10    10
               Ndocc        8     8
               Nsocc        0     0
   ------------------------------------
              CI Spaces
   ------------------------------------
        Dropped DOCC        0     0
                RAS1        8     8
                RAS2        0     0
                RAS3        2     2
                RAS4        0     0
      Active (total)       10    10
        Dropped UOCC        0     0
   ------------------------------------

   ==> Setting up CI strings <==

    There are 45 alpha and 45 beta strings
    The CI space requires 345 (3.45E+02) determinants and 6 blocks

   ==> Transforming CI integrals <==

	Presorting SO-basis two-electron integrals.
	Sorting File: SO Ints (nn|nn) nbuckets = 1
	Transforming the one-electron integrals and constructing Fock matrices
	Starting first half-transformation.
	Sorting half-transformed integrals.
	First half integral transformation complete.
	Starting second half-transformation.
	Two-electron integral transformation complete.

   ==> Starting CI iterations <==

    H0 Block Eigenvalue = -147.49430622

    Simultaneous Expansion Method (Block Davidson Method)
    Using 1 initial trial vectors

(sem_iter): H0block_->H0b_diag[1][0] - H0block_->H0b_diag[2][0] = -0.698509 - 0.698509 = -1.397019 > 1.0E-8
     Iter   Root       Total Energy       Delta E      C RMS

   @CI  0:     0   -147.458916651226   -1.8133E+02   2.4408E-13  
    Warning: Norm of correction (root 0) is < 1.0E-13
   @CI  1:     0   -147.458916651226   0.0000E+00   9.9685E-13 c

   ==> Energetics <==

    SCF energy =         -147.367524578046641
    Total CI energy =    -147.458916651226332

   ==> CISD root 0 information <==

    CISD Root 0 energy =  -147.458916651226332

   The 20 most important determinants:

    *   1    0.925282  (    0,    0)  1AX 2AX 3AX 4AX 5AX 6AX 7AX 8AX 
    *   2   -0.326497  (    1,    1)  1AX 2AX 3AX 4AX 5AX 6AX 7AX 9AX 
    *   3   -0.149587  (    3,    3)  1AX 2AX 3AX 4AX 5AX 7AX 8AX 9AX 
    *   4    0.051453  (    4,    4)  1AX 2AX 3AX 4AX 6AX 7AX 8AX 9AX 
    *   5   -0.038779  (    3,   10)  1AX 2AX 3AX 4AX 5AX 6AB 7AA 8AX 9AA 10AB 
    *   6   -0.038779  (   10,    3)  1AX 2AX 3AX 4AX 5AX 6AA 7AB 8AX 9AB 10AA 
    *   7    0.038107  (    0,   24)  1AX 2AX 3AX 4AX 5AX 6AA 7AA 8AX 9AB 10AB 
    *   8    0.038107  (   24,    0)  1AX 2AX 3AX 4AX 5AX 6AB 7AB 8AX 9AA 10AA 
    *   9   -0.031248  (   10,   10)  1AX 2AX 3AX 4AX 5AX 6AX 8AX 10AX 
    *  10    0.029491  (    3,   14)  1AX 2AX 3AA 4AX 5AX 6AB 7AX 8AX 9AA 10AB 
    *  11    0.029491  (   14,    3)  1AX 2AX 3AB 4AX 5AX 6AA 7AX 8AX 9AB 10AA 
    *  12   -0.029401  (    5,    5)  1AX 2AX 3AX 5AX 6AX 7AX 8AX 9AX 
    *  13   -0.020930  (   14,   14)  1AX 2AX 4AX 5AX 6AX 7AX 8AX 10AX 
    *  14    0.015732  (   10,   14)  1AX 2AX 3AA 4AX 5AX 6AX 7AB 8AX 10AX 
    *  15    0.015732  (   14,   10)  1AX 2AX 3AB 4AX 5AX 6AX 7AA 8AX 10AX 
    *  16    0.015442  (    6,   11)  1AX 2AX 3AB 4AX 5AX 6AA 7AX 8AX 9AA 10AB 
    *  17    0.015442  (   11,    6)  1AX 2AX 3AA 4AX 5AX 6AB 7AX 8AX 9AB 10AA 
    *  18    0.014049  (    0,   32)  1AX 2AX 3AA 4AX 5AX 6AA 7AX 8AX 9AB 10AB 
    *  19    0.014049  (   32,    0)  1AX 2AX 3AB 4AX 5AX 6AB 7AX 8AX 9AA 10AA 
    *  20   -0.013704  (   13,   13)  1AX 2AX 3AX 5AX 6AX 7AX 8AX 10AX 

		 "A good bug is a dead bug" 

			 - Starship Troopers

		 "I didn't write FORTRAN.  That's the problem."

			 - Edward Valeev

*** tstart() called on trurls-machine
*** at Wed Mar  4 18:20:13 2020

   => Loading Basis Set <=

    Name: STO-3G
    Role: ORBITAL
    Keyword: BASIS
    atoms 1-2 entry O          line    81 file /Users/teague/anaconda3/envs/gen_env/share/psi4/basis/sto-3g.gbs 


         ---------------------------------------------------------
                                   SCF
               by Justin Turney, Rob Parrish, Andy Simmonett
                          and Daniel G. A. Smith
                              RHF Reference
                        1 Threads,   7629 MiB Core
         ---------------------------------------------------------

  ==> Geometry <==

    Molecular point group: c1
    Full point group: D_inf_h

    Geometry (in Angstrom), charge = 0, multiplicity = 1:

       Center              X                  Y                   Z               Mass       
    ------------   -----------------  -----------------  -----------------  -----------------
         O            0.499988999879     0.000000000000     0.000000000000    15.994914619570
         O           -0.499988999879    -0.000000000000     0.000000000000    15.994914619570

  Running in c1 symmetry.

  Rotational constants: A = ************  B =      2.10797  C =      2.10797 [cm^-1]
  Rotational constants: A = ************  B =  63195.24155  C =  63195.24155 [MHz]
  Nuclear repulsion =   33.868086588981200

  Charge       = 0
  Multiplicity = 1
  Electrons    = 16
  Nalpha       = 8
  Nbeta        = 8

  ==> Algorithm <==

  SCF Algorithm Type is PK.
  DIIS enabled.
  MOM disabled.
  Fractional occupation disabled.
  Guess Type is SAD.
  Energy threshold   = 1.00e-06
  Density threshold  = 1.00e-06
  Integral threshold = 0.00e+00

  ==> Primary Basis <==

  Basis Set: STO-3G
    Blend: STO-3G
    Number of shells: 6
    Number of basis function: 10
    Number of Cartesian functions: 10
    Spherical Harmonics?: true
    Max angular momentum: 1

  ==> Pre-Iterations <==

   -------------------------------------------------------
    Irrep   Nso     Nmo     Nalpha   Nbeta   Ndocc  Nsocc
   -------------------------------------------------------
     A         10      10       0       0       0       0
   -------------------------------------------------------
    Total      10      10       8       8       8       0
   -------------------------------------------------------

  ==> Integral Setup <==

  Using in-core PK algorithm.
   Calculation information:
      Number of atoms:                   2
      Number of AO shells:               6
      Number of primitives:             18
      Number of atomic orbitals:        10
      Number of basis functions:        10

      Integral cutoff                 1.00e-12
      Number of threads:                 1

  Performing in-core PK
  Using 3080 doubles for integral storage.
  We computed 231 shell quartets total.
  Whereas there are 231 unique shell quartets.

  ==> DiskJK: Disk-Based J/K Matrices <==

    J tasked:                  Yes
    K tasked:                  Yes
    wK tasked:                  No
    Memory [MiB]:             5722
    Schwarz Cutoff:          1E-12

    OpenMP threads:              1

  Minimum eigenvalue in the overlap matrix is 1.9669358667E-01.
  Using Symmetric Orthogonalization.

  SCF Guess: Superposition of Atomic Densities via on-the-fly atomic UHF.

  ==> Iterations <==

                        Total Energy        Delta E     RMS |[F,P]|

   @RHF iter SAD:  -147.43612575243725   -1.47436e+02   0.00000e+00 
   @RHF iter   1:  -147.35586195371232    8.02638e-02   1.51382e-02 DIIS
   @RHF iter   2:  -147.36698626292835   -1.11243e-02   3.01774e-03 DIIS
   @RHF iter   3:  -147.36752261041772   -5.36347e-04   2.02166e-04 DIIS
   @RHF iter   4:  -147.36752457803831   -1.96762e-06   3.91388e-07 DIIS
   @RHF iter   5:  -147.36752457804664   -8.32756e-12   6.24017e-10 DIIS
  Energy and wave function converged.


  ==> Post-Iterations <==

    Orbital Energies [Eh]
    ---------------------

    Doubly Occupied:                                                      

       1A    -20.490151     2A    -20.489420     3A     -1.808304  
       4A     -0.941542     5A     -0.784229     6A     -0.688519  
       7A     -0.655402     8A     -0.260458  

    Virtual:                                                              

       9A      0.286034    10A      1.208631  

    Final Occupation by Irrep:
              A 
    DOCC [     8 ]

  @RHF Final Energy:  -147.36752457804664

   => Energetics <=

    Nuclear Repulsion Energy =             33.8680865889811997
    One-Electron Energy =                -270.2351725761650414
    Two-Electron Energy =                  88.9995614091371863
    Total Energy =                       -147.3675245780466412

Computation Completed


Properties will be evaluated at   0.000000,   0.000000,   0.000000 [a0]

Properties computed using the SCF density matrix

  Nuclear Dipole Moment: [e a0]
     X:     0.0000      Y:     0.0000      Z:     0.0000

  Electronic Dipole Moment: [e a0]
     X:    -0.0000      Y:     0.0000      Z:     0.0000

  Dipole Moment: [e a0]
     X:    -0.0000      Y:     0.0000      Z:     0.0000     Total:     0.0000

  Dipole Moment: [D]
     X:    -0.0000      Y:     0.0000      Z:     0.0000     Total:     0.0000


*** tstop() called on trurls-machine at Wed Mar  4 18:20:13 2020
Module time:
	user time   =       0.13 seconds =       0.00 minutes
	system time =       0.01 seconds =       0.00 minutes
	total time  =          0 seconds =       0.00 minutes
Total time:
	user time   =       0.84 seconds =       0.01 minutes
	system time =       0.08 seconds =       0.00 minutes
	total time  =          1 seconds =       0.02 minutes
 MINTS: Wrapper to libmints.
   by Justin Turney

   Calculation information:
      Number of threads:                 1
      Number of atoms:                   2
      Number of AO shells:               6
      Number of SO shells:               6
      Number of primitives:             18
      Number of atomic orbitals:        10
      Number of basis functions:        10

      Number of irreps:                  1
      Integral cutoff                 0.00e+00
      Number of functions per irrep: [  10 ]

 OEINTS: Overlap, kinetic, potential, dipole, and quadrupole integrals
         stored in file 35.

      Computing two-electron integrals...done
      Computed 834 non-zero two-electron integrals.
        Stored in file 33.


         ---------------------------------------------------------
                          Configuration Interaction
                            (a 'D E T C I' module)

                 C. David Sherrill, Daniel G. A. Smith, and
                              Matt L. Leininger
         ---------------------------------------------------------


   ==> Parameters <==

    EX LEVEL       =       16      H0 BLOCKSIZE  =     1000
    VAL EX LEVEL   =        0      H0 GUESS SIZE =     1000
    H0COUPLINGSIZE =        0      H0 COUPLING   =       NO
    MAXITER        =       24      NUM PRINT     =       20
    NUM ROOTS      =        1      ICORE         =        1
    PRINT LVL      =        1      FCI           =      YES
    R CONV         = 1.00e-06      MIXED         =      YES
    E CONV         = 1.00e-06      MIXED4        =      YES
    R4S            =       NO      REPL OTF      =       NO
    DIAG METHOD    =      SEM      FOLLOW ROOT   =        0
    PRECONDITIONER = DAVIDSON      UPDATE        = DAVIDSON
    S              =   0.0000      Ms0           =      YES
    GUESS VECTOR   =  H0BLOCK      OPENTYPE      =     NONE
    COLLAPSE SIZE  =        1      HD AVG        = EVANGELISTI
    MAX NUM VECS   =       25      REF SYM       =     AUTO
    IOPEN        =       NO

    EX ALLOW       =  1  1  1  1  1  1  1  1  1  1  1  1  1  1  1  1 
    STATE AVERAGE  =  0(1.00) 

   ==> CI Orbital and Space information <==

   ------------------------------------
               Space    Total     A
   ------------------------------------
                 Nso       10    10
                 Nmo       10    10
               Ndocc        8     8
               Nsocc        0     0
   ------------------------------------
              CI Spaces
   ------------------------------------
        Dropped DOCC        0     0
              Active       10    10
        Dropped UOCC        0     0
   ------------------------------------

   ==> Setting up CI strings <==

    There are 45 alpha and 45 beta strings
    The CI space requires 2025 (2.02E+03) determinants and 1 blocks

   ==> Transforming CI integrals <==

	Presorting SO-basis two-electron integrals.
	Sorting File: SO Ints (nn|nn) nbuckets = 1
	Transforming the one-electron integrals and constructing Fock matrices
	Starting first half-transformation.
	Sorting half-transformed integrals.
	First half integral transformation complete.
	Starting second half-transformation.
	Two-electron integral transformation complete.

   ==> Starting CI iterations <==

    H0 Block Eigenvalue = -147.51901630

    Simultaneous Expansion Method (Block Davidson Method)
    Using 1 initial trial vectors

(sem_iter): H0block_->H0b_diag[1][0] - H0block_->H0b_diag[2][0] = 0.696684 - -0.696684 = 1.393367 > 1.0E-8
     Iter   Root       Total Energy       Delta E      C RMS

   @CI  0:     0   -147.470285352063   -1.8134E+02   5.9043E-02  
   @CI  1:     0   -147.470379475190   -9.4123E-05   3.2943E-03  
   @CI  2:     0   -147.470379840644   -3.6545E-07   1.7521E-04  
   @CI  3:     0   -147.470379842495   -1.8514E-09   3.2017E-05  
   @CI  4:     0   -147.470379842715   -2.1984E-10   2.1854E-05  
   @CI  5:     0   -147.470379842788   -7.2703E-11   1.5465E-05  
   @CI  6:     0   -147.470379842905   -1.1730E-10   1.8666E-05  
   @CI  7:     0   -147.470379842940   -3.5271E-11   5.8320E-06  
   @CI  8:     0   -147.470379842944   -3.0980E-12   1.2212E-06  
    Warning: Norm of correction (root 0) is < 1.0E-13
   @CI  9:     0   -147.470379842944   -8.5265E-14   3.6443E-07 c

   ==> Energetics <==

    SCF energy =         -147.367524578046641
    Total CI energy =    -147.470379842943657

   ==> FCI root 0 information <==

    FCI Root 0 energy =  -147.470379842943657

   The 20 most important determinants:

    *   1   -0.693957  (    0,    0)  1AX 2AX 3AX 4AX 5AX 6AX 7AX 8AX 
    *   2    0.693957  (    1,    1)  1AX 2AX 3AX 4AX 5AX 6AX 7AX 9AX 
    *   3    0.107739  (    3,    3)  1AX 2AX 3AX 4AX 5AX 7AX 8AX 9AX 
    *   4   -0.107739  (    4,    4)  1AX 2AX 3AX 4AX 6AX 7AX 8AX 9AX 
    *   5    0.030658  (    3,   10)  1AX 2AX 3AX 4AX 5AX 6AB 7AA 8AX 9AA 10AB 
    *   6    0.030658  (   10,    3)  1AX 2AX 3AX 4AX 5AX 6AA 7AB 8AX 9AB 10AA 
    *   7   -0.030658  (    4,   17)  1AX 2AX 3AX 4AX 5AB 6AX 7AA 8AA 9AX 10AB 
    *   8   -0.030658  (   17,    4)  1AX 2AX 3AX 4AX 5AA 6AX 7AB 8AB 9AX 10AA 
    *   9    0.030104  (    1,   25)  1AX 2AX 3AX 4AX 5AA 6AX 7AA 8AB 9AX 10AB 
    *  10    0.030104  (   25,    1)  1AX 2AX 3AX 4AX 5AB 6AX 7AB 8AA 9AX 10AA 
    *  11   -0.030104  (    0,   24)  1AX 2AX 3AX 4AX 5AX 6AA 7AA 8AX 9AB 10AB 
    *  12   -0.030104  (   24,    0)  1AX 2AX 3AX 4AX 5AX 6AB 7AB 8AX 9AA 10AA 
    *  13    0.024473  (   10,   10)  1AX 2AX 3AX 4AX 5AX 6AX 8AX 10AX 
    *  14   -0.024473  (   17,   17)  1AX 2AX 3AX 4AX 5AX 6AX 9AX 10AX 
    *  15    0.022473  (    4,   21)  1AX 2AX 3AA 4AX 5AB 6AX 7AX 8AA 9AX 10AB 
    *  16    0.022473  (   21,    4)  1AX 2AX 3AB 4AX 5AA 6AX 7AX 8AB 9AX 10AA 
    *  17   -0.022473  (    3,   14)  1AX 2AX 3AA 4AX 5AX 6AB 7AX 8AX 9AA 10AB 
    *  18   -0.022473  (   14,    3)  1AX 2AX 3AB 4AX 5AX 6AA 7AX 8AX 9AB 10AA 
    *  19    0.015993  (   14,   14)  1AX 2AX 4AX 5AX 6AX 7AX 8AX 10AX 
    *  20   -0.015993  (   21,   21)  1AX 2AX 4AX 5AX 6AX 7AX 9AX 10AX 

		 "A good bug is a dead bug" 

			 - Starship Troopers

		 "I didn't write FORTRAN.  That's the problem."

			 - Edward Valeev

*** tstart() called on trurls-machine
*** at Wed Mar  4 18:20:14 2020

   => Loading Basis Set <=

    Name: STO-3G
    Role: ORBITAL
    Keyword: BASIS
    atoms 1-2 entry O          line    81 file /Users/teague/anaconda3/envs/gen_env/share/psi4/basis/sto-3g.gbs 


         ---------------------------------------------------------
                                   SCF
               by Justin Turney, Rob Parrish, Andy Simmonett
                          and Daniel G. A. Smith
                              RHF Reference
                        1 Threads,   7629 MiB Core
         ---------------------------------------------------------

  ==> Geometry <==

    Molecular point group: c1
    Full point group: D_inf_h

    Geometry (in Angstrom), charge = 0, multiplicity = 1:

       Center              X                  Y                   Z               Mass       
    ------------   -----------------  -----------------  -----------------  -----------------
         O            0.499988999879     0.000000000000     0.000000000000    15.994914619570
         O           -0.499988999879    -0.000000000000     0.000000000000    15.994914619570

  Running in c1 symmetry.

  Rotational constants: A = ************  B =      2.10797  C =      2.10797 [cm^-1]
  Rotational constants: A = ************  B =  63195.24155  C =  63195.24155 [MHz]
  Nuclear repulsion =   33.868086588981200

  Charge       = 0
  Multiplicity = 1
  Electrons    = 16
  Nalpha       = 8
  Nbeta        = 8

  ==> Algorithm <==

  SCF Algorithm Type is PK.
  DIIS enabled.
  MOM disabled.
  Fractional occupation disabled.
  Guess Type is SAD.
  Energy threshold   = 1.00e-06
  Density threshold  = 1.00e-06
  Integral threshold = 0.00e+00

  ==> Primary Basis <==

  Basis Set: STO-3G
    Blend: STO-3G
    Number of shells: 6
    Number of basis function: 10
    Number of Cartesian functions: 10
    Spherical Harmonics?: true
    Max angular momentum: 1

  ==> Pre-Iterations <==

   -------------------------------------------------------
    Irrep   Nso     Nmo     Nalpha   Nbeta   Ndocc  Nsocc
   -------------------------------------------------------
     A         10      10       0       0       0       0
   -------------------------------------------------------
    Total      10      10       8       8       8       0
   -------------------------------------------------------

  ==> Integral Setup <==

  Using in-core PK algorithm.
   Calculation information:
      Number of atoms:                   2
      Number of AO shells:               6
      Number of primitives:             18
      Number of atomic orbitals:        10
      Number of basis functions:        10

      Integral cutoff                 1.00e-12
      Number of threads:                 1

  Performing in-core PK
  Using 3080 doubles for integral storage.
  We computed 231 shell quartets total.
  Whereas there are 231 unique shell quartets.

  ==> DiskJK: Disk-Based J/K Matrices <==

    J tasked:                  Yes
    K tasked:                  Yes
    wK tasked:                  No
    Memory [MiB]:             5722
    Schwarz Cutoff:          1E-12

    OpenMP threads:              1

  Minimum eigenvalue in the overlap matrix is 1.9669358667E-01.
  Using Symmetric Orthogonalization.

  SCF Guess: Superposition of Atomic Densities via on-the-fly atomic UHF.

  ==> Iterations <==

                        Total Energy        Delta E     RMS |[F,P]|

   @RHF iter SAD:  -147.43612575243725   -1.47436e+02   0.00000e+00 
   @RHF iter   1:  -147.35586195371232    8.02638e-02   1.51382e-02 DIIS
   @RHF iter   2:  -147.36698626292835   -1.11243e-02   3.01774e-03 DIIS
   @RHF iter   3:  -147.36752261041772   -5.36347e-04   2.02166e-04 DIIS
   @RHF iter   4:  -147.36752457803831   -1.96762e-06   3.91388e-07 DIIS
   @RHF iter   5:  -147.36752457804664   -8.32756e-12   6.24017e-10 DIIS
  Energy and wave function converged.


  ==> Post-Iterations <==

    Orbital Energies [Eh]
    ---------------------

    Doubly Occupied:                                                      

       1A    -20.490151     2A    -20.489420     3A     -1.808304  
       4A     -0.941542     5A     -0.784229     6A     -0.688519  
       7A     -0.655402     8A     -0.260458  

    Virtual:                                                              

       9A      0.286034    10A      1.208631  

    Final Occupation by Irrep:
              A 
    DOCC [     8 ]

  @RHF Final Energy:  -147.36752457804664

   => Energetics <=

    Nuclear Repulsion Energy =             33.8680865889811997
    One-Electron Energy =                -270.2351725761650414
    Two-Electron Energy =                  88.9995614091371863
    Total Energy =                       -147.3675245780466412

Computation Completed


Properties will be evaluated at   0.000000,   0.000000,   0.000000 [a0]

Properties computed using the SCF density matrix

  Nuclear Dipole Moment: [e a0]
     X:     0.0000      Y:     0.0000      Z:     0.0000

  Electronic Dipole Moment: [e a0]
     X:    -0.0000      Y:     0.0000      Z:     0.0000

  Dipole Moment: [e a0]
     X:    -0.0000      Y:     0.0000      Z:     0.0000     Total:     0.0000

  Dipole Moment: [D]
     X:    -0.0000      Y:     0.0000      Z:     0.0000     Total:     0.0000


*** tstop() called on trurls-machine at Wed Mar  4 18:20:14 2020
Module time:
	user time   =       0.13 seconds =       0.00 minutes
	system time =       0.01 seconds =       0.00 minutes
	total time  =          0 seconds =       0.00 minutes
Total time:
	user time   =       1.40 seconds =       0.02 minutes
	system time =       0.13 seconds =       0.00 minutes
	total time  =          2 seconds =       0.03 minutes
 MINTS: Wrapper to libmints.
   by Justin Turney

   Calculation information:
      Number of threads:                 1
      Number of atoms:                   2
      Number of AO shells:               6
      Number of SO shells:               6
      Number of primitives:             18
      Number of atomic orbitals:        10
      Number of basis functions:        10

      Number of irreps:                  1
      Integral cutoff                 0.00e+00
      Number of functions per irrep: [  10 ]

 OEINTS: Overlap, kinetic, potential, dipole, and quadrupole integrals
         stored in file 35.

      Computing two-electron integrals...done
      Computed 834 non-zero two-electron integrals.
        Stored in file 33.


*** tstart() called on trurls-machine
*** at Wed Mar  4 18:20:14 2020


	Wfn Parameters:
	--------------------
	Wavefunction         = CCSD
	Number of irreps     = 1
	Number of MOs        = 10
	Number of active MOs = 10
	AO-Basis             = NONE
	Semicanonical        = false
	Reference            = RHF
	Print Level          = 1

	IRREP	# MOs	# FZDC	# DOCC	# SOCC	# VIRT	# FZVR
	-----	-----	------	------	------	------	------
	 A	   10	    0	    8	    0	    2	    0
	Transforming integrals...
	IWL integrals will be deleted.
	(OO|OO)...
	Presorting SO-basis two-electron integrals.
	Sorting File: SO Ints (nn|nn) nbuckets = 1
	Transforming the one-electron integrals and constructing Fock matrices
	Starting first half-transformation.
	Sorting half-transformed integrals.
	First half integral transformation complete.
	Starting second half-transformation.
	Two-electron integral transformation complete.
	(OO|OV)...
	Starting second half-transformation.
	Two-electron integral transformation complete.
	(OO|VV)...
	Starting second half-transformation.
	Two-electron integral transformation complete.
	(OV|OO)...
	Starting first half-transformation.
	Sorting half-transformed integrals.
	First half integral transformation complete.
	Starting second half-transformation.
	Two-electron integral transformation complete.
	(OV|OV)...
	Starting second half-transformation.
	Two-electron integral transformation complete.
	(OV|VV)...
	Starting second half-transformation.
	Two-electron integral transformation complete.
	(VV|OO)...
	Starting first half-transformation.
	Sorting half-transformed integrals.
	First half integral transformation complete.
	Starting second half-transformation.
	Two-electron integral transformation complete.
	(VV|OV)...
	Starting second half-transformation.
	Two-electron integral transformation complete.
	(VV|VV)...
	Starting second half-transformation.
	Two-electron integral transformation complete.
	Frozen core energy     =      0.00000000000000

	Size of irrep 0 of <ab|cd> integrals:      0.000 (MW) /      0.000 (MB)
	Total:                                     0.000 (MW) /      0.000 (MB)

	Size of irrep 0 of <ia|bc> integrals:      0.000 (MW) /      0.001 (MB)
	Total:                                     0.000 (MW) /      0.001 (MB)

	Size of irrep 0 of tijab amplitudes:       0.000 (MW) /      0.002 (MB)
	Total:                                     0.000 (MW) /      0.002 (MB)

	Nuclear Rep. energy          =     33.86808658898120
	SCF energy                   =   -147.36752457804664
	One-electron energy          =   -270.23517257026776
	Two-electron energy          =     88.99956140323995
	Reference energy             =   -147.36752457804658

*** tstop() called on trurls-machine at Wed Mar  4 18:20:14 2020
Module time:
	user time   =       0.01 seconds =       0.00 minutes
	system time =       0.04 seconds =       0.00 minutes
	total time  =          0 seconds =       0.00 minutes
Total time:
	user time   =       1.41 seconds =       0.02 minutes
	system time =       0.17 seconds =       0.00 minutes
	total time  =          2 seconds =       0.03 minutes
            **************************
            *                        *
            *        CCENERGY        *
            *                        *
            **************************

    Nuclear Rep. energy (wfn)     =   33.868086588981200
    SCF energy          (wfn)     = -147.367524578046641
    Reference energy    (file100) = -147.367524578046584

    Input parameters:
    -----------------
    Wave function   =     CCSD
    Reference wfn   =     RHF
    Brueckner       =     No
    Memory (Mbytes) =     8000.0
    Maxiter         =   1000000
    R_Convergence   =     1.0e-06
    E_Convergence   =     1.0e-06
    Restart         =     Yes
    DIIS            =     Yes
    AO Basis        =     NONE
    ABCD            =     NEW
    Cache Level     =     2
    Cache Type      =     LOW
    Print Level     =     1
    Num. of threads =     1
    # Amps to Print =     1000000
    Print MP2 Amps? =     No
    Analyze T2 Amps =     No
    Print Pair Ener =     No
    Local CC        =     No
    SCS-MP2         =     False
    SCSN-MP2        =     False
    SCS-CCSD        =     False

MP2 correlation energy -0.0730792727806008
                Solving CC Amplitude Equations
                ------------------------------
  Iter             Energy              RMS        T1Diag      D1Diag    New D1Diag    D2Diag
  ----     ---------------------    ---------   ----------  ----------  ----------   --------
     0        -0.073079272780601    0.000e+00    0.000000    0.000000    0.000000    0.137101
     1        -0.084312601099203    3.752e-02    0.001403    0.005612    0.005612    0.170520
     2        -0.088339566903535    1.756e-02    0.001947    0.007786    0.007786    0.190958
     3        -0.088826744086451    1.156e-02    0.001852    0.007408    0.007408    0.199746
     4        -0.089927894300948    1.096e-02    0.001640    0.006559    0.006559    0.240060
     5        -0.093837305276035    8.994e-03    0.001700    0.006800    0.006800    0.489838
     6        -0.093650550852446    1.099e-03    0.001784    0.007137    0.007137    0.470201
     7        -0.093941118769097    5.729e-04    0.001772    0.007090    0.007090    0.492262
     8        -0.093783393717491    2.771e-04    0.001770    0.007079    0.007079    0.480897
     9        -0.093855307285516    1.437e-04    0.001769    0.007077    0.007077    0.485918
    10        -0.093833970280411    3.865e-05    0.001769    0.007078    0.007078    0.484467
    11        -0.093839011563946    1.424e-05    0.001769    0.007077    0.007077    0.484813
    12        -0.093839759545222    1.672e-06    0.001769    0.007077    0.007077    0.484864
    13        -0.093839755068786    1.985e-07    0.001769    0.007077    0.007077    0.484864

    Iterations converged.


    Largest TIA Amplitudes:
              3   1         0.0070774383
              1   1        -0.0000236821

    Largest TIjAb Amplitudes:
      7   7   0   0        -0.4462224777
      5   5   0   0        -0.1627242033
      4   4   0   0         0.0733761677
      5   6   0   1         0.0424713509
      6   5   1   0         0.0424713509
      6   6   1   1        -0.0345604332
      2   5   1   0        -0.0321845072
      5   2   0   1        -0.0321845072
      3   3   0   0        -0.0273801624
      2   2   1   1        -0.0228926760
      2   6   1   1         0.0173182406
      6   2   1   1         0.0173182406
      2   5   0   1        -0.0167313816
      5   2   1   0        -0.0167313816
      3   3   1   1        -0.0151163786
      6   6   0   0        -0.0133236300
      7   7   1   1        -0.0132784893
      5   5   1   1        -0.0120928644
      4   4   1   1        -0.0119951673
      2   2   0   0        -0.0067737547
      2   6   0   0        -0.0032025474
      6   2   0   0        -0.0032025474
      5   6   1   0         0.0008937133
      6   5   0   1         0.0008937133
      1   1   1   1        -0.0008520156
      0   0   1   1        -0.0008215746
      1   3   1   1         0.0006904513
      3   1   1   1         0.0006904513
      0   5   0   1         0.0005436942
      5   0   1   0         0.0005436942
      1   3   0   0         0.0004668206
      3   1   0   0         0.0004668206
      0   2   1   1         0.0003797851
      2   0   1   1         0.0003797851
      0   6   1   1         0.0003548370
      6   0   1   1         0.0003548370
      0   2   0   0         0.0003346646
      2   0   0   0         0.0003346646
      0   5   1   0        -0.0002876629
      5   0   0   1        -0.0002876629
      0   6   0   0         0.0001660580
      6   0   0   0         0.0001660580
      1   1   0   0        -0.0001615387
      0   0   0   0        -0.0001495522

    SCF energy       (wfn)                    = -147.367524578046641
    Reference energy (file100)                = -147.367524578046584

    Opposite-spin MP2 correlation energy      =   -0.060021293480589
    Same-spin MP2 correlation energy          =   -0.013057979300012
    MP2 correlation energy                    =   -0.073079272780601
      * MP2 total energy                      = -147.440603850827188

    Opposite-spin CCSD correlation energy     =   -0.081504764983181
    Same-spin CCSD correlation energy         =   -0.012334990085605
    CCSD correlation energy                   =   -0.093839755068786
      * CCSD total energy                     = -147.461364333115370


    Psi4 stopped on: Wednesday, 04 March 2020 06:20PM
    Psi4 wall time for execution: 0:00:02.65

*** Psi4 exiting successfully. Buy a developer a beer!
