
    -----------------------------------------------------------------------
          Psi4: An Open-Source Ab Initio Electronic Structure Package
                               Psi4 1.3.2 release

                         Git: Rev {HEAD} ecbda83 


    R. M. Parrish, L. A. Burns, D. G. A. Smith, A. C. Simmonett,
    A. E. DePrince III, E. G. Hohenstein, U. Bozkaya, A. Yu. Sokolov,
    R. Di Remigio, R. M. Richard, J. F. Gonthier, A. M. James,
    H. R. McAlexander, A. Kumar, M. Saitow, X. Wang, B. P. Pritchard,
    P. Verma, H. F. Schaefer III, K. Patkowski, R. A. King, E. F. Valeev,
    F. A. Evangelista, J. M. Turney, T. D. Crawford, and C. D. Sherrill,
    J. Chem. Theory Comput. 13(7) pp 3185--3197 (2017).
    (doi: 10.1021/acs.jctc.7b00174)


                         Additional Contributions by
    P. Kraus, H. Kruse, M. H. Lechner, M. C. Schieber, R. A. Shaw,
    A. Alenaizan, R. Galvelis, Z. L. Glick, S. Lehtola, and J. P. Misiewicz

    -----------------------------------------------------------------------


    Psi4 started on: Thursday, 05 March 2020 05:26PM

    Process ID: 54379
    Host:       trurls-machine
    PSIDATADIR: /Users/teague/anaconda3/envs/gen_env/share/psi4
    Memory:     500.0 MiB
    Threads:    1
    
  ==> Input File <==

--------------------------------------------------------------------------
"""This is a template for psi4 input format."""
import numpy
import sys

from openfermion.config import *
from openfermion.hamiltonians import MolecularData
from openfermion.ops import general_basis_change

from numpy import array

sys.path.append('/Users/teague/.local/lib/python3.7/site-packages/openfermionpsi4')
from _psi4_conversion_functions import *


# Set memory that job can use in megabytes.
memory 8000 mb

# Initialize molecular data.
_description = 'NIST'
if _description == 'None':
    _description = None
molecule = MolecularData([('C', (0.6136, 1.19, 1.9927)), ('C', (2.0696, 1.6482, 2.1007)), ('C', (2.942, 1.091, 0.9822)), ('O', (2.169, 3.0732, 2.013)), ('H', (0.1844, 1.5146, 1.0381)), ('H', (0.5342, 0.0984, 2.0582)), ('H', (0.0054, 1.6148, 2.8022)), ('H', (2.4775, 1.3077, 3.0683)), ('H', (2.9622, -0.0038, 1.0125)), ('H', (2.5546, 1.4069, 0.0069)), ('H', (3.9668, 1.4627, 1.0793)), ('H', (1.6151, 3.4489, 2.715))],
                         'sto-3g',
                         1,
                         0,
                         _description,
                          filename='molecule_data/Isopropanol_sto-3g_singlet_NIST')

# Set molecular geometry and symmetry.
molecule mol {
C 0.6136 1.19 1.9927
C 2.0696 1.6482 2.1007
C 2.942 1.091 0.9822
O 2.169 3.0732 2.013
H 0.1844 1.5146 1.0381
H 0.5342 0.0984 2.0582
H 0.0054 1.6148 2.8022
H 2.4775 1.3077 3.0683
H 2.9622 -0.0038 1.0125
H 2.5546 1.4069 0.0069
H 3.9668 1.4627 1.0793
H 1.6151 3.4489 2.715
symmetry c1
}
mol.set_multiplicity(1)
mol.set_molecular_charge(0)

# Set reference and guess.
if molecule.multiplicity == 1:
    set reference rhf
    set guess sad
else:
    set reference rohf
    set guess gwh

# Set global parameters of calculation.
set globals {
    basis sto-3g
    freeze_core false
    fail_on_maxiter True
    df_scf_guess false
    opdm true
    tpdm true
    soscf false
    scf_type pk
    maxiter 1e6
    num_amps_print 1e6
    r_convergence 1e-6
    d_convergence 1e-6
    e_convergence 1e-6
    ints_tolerance EQUALITY_TOLERANCE
    damping_percentage 0
}

# Run self-consistent field (SCF) calculation.
if True:
    try:
        hf_energy, hf_wavefunction = energy('scf', return_wfn=True)
        if False:
            print('Hartree-Fock energy for {} ({} electrons) is {}.'.format(
                molecule.name, molecule.n_electrons, hf_energy))
    except:
        if False:
            print('WARNING: SCF calculation failed.')
        else:
            raise
    finally:
        # Get orbitals and Fock matrix.
        molecule.hf_energy = hf_energy
        molecule.nuclear_repulsion = mol.nuclear_repulsion_energy()
        molecule.canonical_orbitals = numpy.asarray(hf_wavefunction.Ca())
        molecule.overlap_integrals = numpy.asarray(hf_wavefunction.S())
        molecule.n_orbitals = molecule.canonical_orbitals.shape[0]
        molecule.n_qubits = 2 * molecule.n_orbitals
        molecule.orbital_energies = numpy.asarray(hf_wavefunction.epsilon_a())
        molecule.fock_matrix = numpy.asarray(hf_wavefunction.Fa())

        # Get integrals using MintsHelper.
        mints = MintsHelper(hf_wavefunction.basisset())
        molecule.one_body_integrals = general_basis_change(
            numpy.asarray(mints.ao_kinetic()), molecule.canonical_orbitals, (1, 0))
        molecule.one_body_integrals += general_basis_change(
            numpy.asarray(mints.ao_potential()), molecule.canonical_orbitals, (1, 0))
        two_body_integrals = numpy.asarray(mints.ao_eri())
        two_body_integrals.reshape((molecule.n_orbitals, molecule.n_orbitals,
                                    molecule.n_orbitals, molecule.n_orbitals))
        two_body_integrals = numpy.einsum('psqr', two_body_integrals)
        two_body_integrals = general_basis_change(
            two_body_integrals, molecule.canonical_orbitals, (1, 1, 0, 0))
        molecule.two_body_integrals = two_body_integrals
        molecule.save()


# Perform MP2 energy calculation if there are at least two electrons.
if True:
    try:
        assert molecule.n_electrons > 1
        mp2_energy = energy('mp2')
        if False:
            print('MP2 energy for {} ({} electrons) is {}.'.format(
                molecule.name, molecule.n_electrons, mp2_energy))
    except:
        if False:
            print('WARNING: MP2 calculation failed.')
        else:
            raise
    else:
        molecule.mp2_energy = mp2_energy
        molecule.save()


# Perform configuration interaction singles and doubles (CISD) calculation.
if True:
    set qc_module detci
    try:
        cisd_energy, cisd_wavefunction = energy('cisd', return_wfn=True)
        if False:
            print('CISD energy for {} ({} electrons) is {}.'.format(
                molecule.name, molecule.n_electrons, cisd_energy))
    except:
        if False:
            print('WARNING: CISD calculation failed.')
        else:
            raise
    else:
        # For the functions below, "a" and "b" refer to "up and "down" spins.
        molecule.cisd_energy = cisd_energy

        # Get 1-RDM from CISD calculation.
        cisd_one_rdm_a = numpy.array(cisd_wavefunction.get_opdm(
            0, 0, 'A', True)).reshape(molecule.n_orbitals, molecule.n_orbitals)
        cisd_one_rdm_b = numpy.array(cisd_wavefunction.get_opdm(
            0, 0, 'B', True)).reshape(molecule.n_orbitals, molecule.n_orbitals)

        # Get 2-RDM from CISD calculation.
        cisd_two_rdm_aa = numpy.array(cisd_wavefunction.get_tpdm(
            'AA', False)).reshape(molecule.n_orbitals, molecule.n_orbitals,
                                  molecule.n_orbitals, molecule.n_orbitals)
        cisd_two_rdm_ab = numpy.array(cisd_wavefunction.get_tpdm(
            'AB', False)).reshape(molecule.n_orbitals, molecule.n_orbitals,
                                  molecule.n_orbitals, molecule.n_orbitals)
        cisd_two_rdm_bb = numpy.array(cisd_wavefunction.get_tpdm(
            'BB', False)).reshape(molecule.n_orbitals, molecule.n_orbitals,
                                  molecule.n_orbitals, molecule.n_orbitals)

        # Get overall RDMs.
        cisd_one_rdm, cisd_two_rdm = unpack_spatial_rdm(
            cisd_one_rdm_a, cisd_one_rdm_b, cisd_two_rdm_aa,
            cisd_two_rdm_ab, cisd_two_rdm_bb)

        # Store 1-RDM in molecule file, 2-RDM separately in other file.
        molecule.cisd_one_rdm = cisd_one_rdm
        molecule.cisd_two_rdm = cisd_two_rdm
        molecule.save()


# Perform exact diagonalization.
if True:
    set qc_module detci
    try:
        fci_energy, fci_wavefunction = energy('fci', return_wfn=True)
        if False:
            print('FCI energy for {} ({} electrons) is {}.'.format(
                molecule.name, molecule.n_electrons, fci_energy))
    except:
        if False:
            print('WARNING: FCI calculation failed.')
        else:
            raise
    finally:
        # For the functions below, "a" and "b" refer to "up and "down" spins.
        molecule.fci_energy = fci_energy

        # Get 1-RDM from FCI calculation.
        fci_one_rdm_a = numpy.array(fci_wavefunction.get_opdm(
            0, 0, 'A', True)).reshape(molecule.n_orbitals, molecule.n_orbitals)
        fci_one_rdm_b = numpy.array(fci_wavefunction.get_opdm(
            0, 0, 'B', True)).reshape(molecule.n_orbitals, molecule.n_orbitals)

        # Get 2-RDM from FCI calculation.
        fci_two_rdm_aa = numpy.array(fci_wavefunction.get_tpdm(
            'AA', False)).reshape(molecule.n_orbitals, molecule.n_orbitals,
                                  molecule.n_orbitals, molecule.n_orbitals)
        fci_two_rdm_ab = numpy.array(fci_wavefunction.get_tpdm(
            'AB', False)).reshape(molecule.n_orbitals, molecule.n_orbitals,
                                  molecule.n_orbitals, molecule.n_orbitals)
        fci_two_rdm_bb = numpy.array(fci_wavefunction.get_tpdm(
            'BB', False)).reshape(molecule.n_orbitals, molecule.n_orbitals,
                                  molecule.n_orbitals, molecule.n_orbitals)

        # Get overall RDMs.
        fci_one_rdm, fci_two_rdm = unpack_spatial_rdm(
            fci_one_rdm_a, fci_one_rdm_b,
            fci_two_rdm_aa, fci_two_rdm_ab, fci_two_rdm_bb)

        # Store 1-RDM in molecule file, 2-RDM separately in other file.
        molecule.fci_one_rdm = fci_one_rdm
        molecule.fci_two_rdm = fci_two_rdm
        molecule.save()


# Perform coupled cluster singles and doubles (CCSD) calculation.
if True:
    set qc_module ccenergy
    try:
        ccsd_energy = energy('ccsd')
        if False:
            print('CCSD energy for {} ({} electrons) is {}.'.format(
                molecule.name, molecule.n_electrons, ccsd_energy))
    except:
        if False:
            print('WARNING: CCSD calculation failed.')
        else:
            raise
    else:
        molecule.ccsd_energy = ccsd_energy

        # Merge CC amplitudes into molecule by parsing
        psi_filename = outfile_name()
        single_cc_amplitudes, double_cc_amplitudes = (
            parse_psi4_ccsd_amplitudes(
                2 * molecule.n_orbitals,
                molecule.get_n_alpha_electrons(),
                molecule.get_n_beta_electrons(),
                psi_filename))

        molecule.ccsd_single_amps = single_cc_amplitudes
        molecule.ccsd_double_amps = double_cc_amplitudes
        molecule.save()
--------------------------------------------------------------------------

  Memory set to   7.451 GiB by Python driver.

*** tstart() called on trurls-machine
*** at Thu Mar  5 17:26:37 2020

   => Loading Basis Set <=

    Name: STO-3G
    Role: ORBITAL
    Keyword: BASIS
    atoms 1-3  entry C          line    61 file /Users/teague/anaconda3/envs/gen_env/share/psi4/basis/sto-3g.gbs 
    atoms 4    entry O          line    81 file /Users/teague/anaconda3/envs/gen_env/share/psi4/basis/sto-3g.gbs 
    atoms 5-12 entry H          line    19 file /Users/teague/anaconda3/envs/gen_env/share/psi4/basis/sto-3g.gbs 


         ---------------------------------------------------------
                                   SCF
               by Justin Turney, Rob Parrish, Andy Simmonett
                          and Daniel G. A. Smith
                              RHF Reference
                        1 Threads,   7629 MiB Core
         ---------------------------------------------------------

  ==> Geometry <==

    Molecular point group: c1
    Full point group: C1

    Geometry (in Angstrom), charge = 0, multiplicity = 1:

       Center              X                  Y                   Z               Mass       
    ------------   -----------------  -----------------  -----------------  -----------------
         C           -1.327996644046    -0.595639565548     0.211186126104    12.000000000000
         C            0.128003355954    -0.137439565548     0.319186126104    12.000000000000
         C            1.000403355954    -0.694639565548    -0.799313873896    12.000000000000
         O            0.227403355954     1.287560434452     0.231486126104    15.994914619570
         H           -1.757196644046    -0.271039565548    -0.743413873896     1.007825032230
         H           -1.407396644046    -1.687239565548     0.276686126104     1.007825032230
         H           -1.936196644046    -0.170839565548     1.020686126104     1.007825032230
         H            0.535903355954    -0.477939565548     1.286786126104     1.007825032230
         H            1.020603355954    -1.789439565548    -0.769013873896     1.007825032230
         H            0.613003355954    -0.378739565548    -1.774613873896     1.007825032230
         H            2.025203355954    -0.322939565548    -0.702213873896     1.007825032230
         H           -0.326496644046     1.663260434452     0.933486126104     1.007825032230

  Running in c1 symmetry.

  Rotational constants: A =      0.28859  B =      0.26649  C =      0.15830 [cm^-1]
  Rotational constants: A =   8651.82195  B =   7989.22261  C =   4745.83040 [MHz]
  Nuclear repulsion =  134.402569018943552

  Charge       = 0
  Multiplicity = 1
  Electrons    = 34
  Nalpha       = 17
  Nbeta        = 17

  ==> Algorithm <==

  SCF Algorithm Type is PK.
  DIIS enabled.
  MOM disabled.
  Fractional occupation disabled.
  Guess Type is SAD.
  Energy threshold   = 1.00e-06
  Density threshold  = 1.00e-06
  Integral threshold = 0.00e+00

  ==> Primary Basis <==

  Basis Set: STO-3G
    Blend: STO-3G
    Number of shells: 20
    Number of basis function: 28
    Number of Cartesian functions: 28
    Spherical Harmonics?: true
    Max angular momentum: 1

  ==> Pre-Iterations <==

   -------------------------------------------------------
    Irrep   Nso     Nmo     Nalpha   Nbeta   Ndocc  Nsocc
   -------------------------------------------------------
     A         28      28       0       0       0       0
   -------------------------------------------------------
    Total      28      28      17      17      17       0
   -------------------------------------------------------

  ==> Integral Setup <==

  Using in-core PK algorithm.
   Calculation information:
      Number of atoms:                  12
      Number of AO shells:              20
      Number of primitives:             60
      Number of atomic orbitals:        28
      Number of basis functions:        28

      Integral cutoff                 1.00e-12
      Number of threads:                 1

  Performing in-core PK
  Using 165242 doubles for integral storage.
  We computed 21522 shell quartets total.
  Whereas there are 22155 unique shell quartets.

  ==> DiskJK: Disk-Based J/K Matrices <==

    J tasked:                  Yes
    K tasked:                  Yes
    wK tasked:                  No
    Memory [MiB]:             5722
    Schwarz Cutoff:          1E-12

    OpenMP threads:              1

  Minimum eigenvalue in the overlap matrix is 2.0802606603E-01.
  Using Symmetric Orthogonalization.

  SCF Guess: Superposition of Atomic Densities via on-the-fly atomic UHF.

  ==> Iterations <==

                        Total Energy        Delta E     RMS |[F,P]|

   @RHF iter SAD:  -187.18106023325396   -1.87181e+02   0.00000e+00 
   @RHF iter   1:  -190.65229917446285   -3.47124e+00   1.03163e-02 DIIS
   @RHF iter   2:  -190.71057746470302   -5.82783e-02   2.62728e-03 DIIS
   @RHF iter   3:  -190.71391697601993   -3.33951e-03   5.12173e-04 DIIS
   @RHF iter   4:  -190.71412096219657   -2.03986e-04   6.29034e-05 DIIS
   @RHF iter   5:  -190.71412424903238   -3.28684e-06   1.73575e-05 DIIS
   @RHF iter   6:  -190.71412459299881   -3.43966e-07   3.43242e-06 DIIS
   @RHF iter   7:  -190.71412460586106   -1.28622e-08   7.73196e-07 DIIS
  Energy and wave function converged.


  ==> Post-Iterations <==

    Orbital Energies [Eh]
    ---------------------

    Doubly Occupied:                                                      

       1A    -20.242149     2A    -11.094247     3A    -11.040206  
       4A    -11.036100     5A     -1.279047     6A     -0.995247  
       7A     -0.899524     8A     -0.752165     9A     -0.628124  
      10A     -0.578072    11A     -0.555601    12A     -0.511417  
      13A     -0.491187    14A     -0.470370    15A     -0.453249  
      16A     -0.393339    17A     -0.344505  

    Virtual:                                                              

      18A      0.547940    19A      0.605736    20A      0.637563  
      21A      0.694399    22A      0.699444    23A      0.714597  
      24A      0.747694    25A      0.754260    26A      0.760217  
      27A      0.781643    28A      0.805006  

    Final Occupation by Irrep:
              A 
    DOCC [    17 ]

  @RHF Final Energy:  -190.71412460586106

   => Energetics <=

    Nuclear Repulsion Energy =            134.4025690189435522
    One-Electron Energy =                -526.7043074193570646
    Two-Electron Energy =                 201.5876137945524533
    Total Energy =                       -190.7141246058610591

Computation Completed


Properties will be evaluated at   0.000000,   0.000000,   0.000000 [a0]

Properties computed using the SCF density matrix

  Nuclear Dipole Moment: [e a0]
     X:    -1.1544      Y:    -3.2139      Z:    -0.4410

  Electronic Dipole Moment: [e a0]
     X:     0.8378      Y:     2.9085      Z:     0.7926

  Dipole Moment: [e a0]
     X:    -0.3166      Y:    -0.3054      Z:     0.3516     Total:     0.5631

  Dipole Moment: [D]
     X:    -0.8047      Y:    -0.7762      Z:     0.8936     Total:     1.4313


*** tstop() called on trurls-machine at Thu Mar  5 17:26:37 2020
Module time:
	user time   =       0.54 seconds =       0.01 minutes
	system time =       0.02 seconds =       0.00 minutes
	total time  =          0 seconds =       0.00 minutes
Total time:
	user time   =       0.54 seconds =       0.01 minutes
	system time =       0.02 seconds =       0.00 minutes
	total time  =          0 seconds =       0.00 minutes

*** tstart() called on trurls-machine
*** at Thu Mar  5 17:26:39 2020

   => Loading Basis Set <=

    Name: STO-3G
    Role: ORBITAL
    Keyword: BASIS
    atoms 1-3  entry C          line    61 file /Users/teague/anaconda3/envs/gen_env/share/psi4/basis/sto-3g.gbs 
    atoms 4    entry O          line    81 file /Users/teague/anaconda3/envs/gen_env/share/psi4/basis/sto-3g.gbs 
    atoms 5-12 entry H          line    19 file /Users/teague/anaconda3/envs/gen_env/share/psi4/basis/sto-3g.gbs 


         ---------------------------------------------------------
                                   SCF
               by Justin Turney, Rob Parrish, Andy Simmonett
                          and Daniel G. A. Smith
                              RHF Reference
                        1 Threads,   7629 MiB Core
         ---------------------------------------------------------

  ==> Geometry <==

    Molecular point group: c1
    Full point group: C1

    Geometry (in Angstrom), charge = 0, multiplicity = 1:

       Center              X                  Y                   Z               Mass       
    ------------   -----------------  -----------------  -----------------  -----------------
         C           -1.327996644046    -0.595639565548     0.211186126104    12.000000000000
         C            0.128003355954    -0.137439565548     0.319186126104    12.000000000000
         C            1.000403355954    -0.694639565548    -0.799313873896    12.000000000000
         O            0.227403355954     1.287560434452     0.231486126104    15.994914619570
         H           -1.757196644046    -0.271039565548    -0.743413873896     1.007825032230
         H           -1.407396644046    -1.687239565548     0.276686126104     1.007825032230
         H           -1.936196644046    -0.170839565548     1.020686126104     1.007825032230
         H            0.535903355954    -0.477939565548     1.286786126104     1.007825032230
         H            1.020603355954    -1.789439565548    -0.769013873896     1.007825032230
         H            0.613003355954    -0.378739565548    -1.774613873896     1.007825032230
         H            2.025203355954    -0.322939565548    -0.702213873896     1.007825032230
         H           -0.326496644046     1.663260434452     0.933486126104     1.007825032230

  Running in c1 symmetry.

  Rotational constants: A =      0.28859  B =      0.26649  C =      0.15830 [cm^-1]
  Rotational constants: A =   8651.82195  B =   7989.22261  C =   4745.83040 [MHz]
  Nuclear repulsion =  134.402569018943552

  Charge       = 0
  Multiplicity = 1
  Electrons    = 34
  Nalpha       = 17
  Nbeta        = 17

  ==> Algorithm <==

  SCF Algorithm Type is PK.
  DIIS enabled.
  MOM disabled.
  Fractional occupation disabled.
  Guess Type is SAD.
  Energy threshold   = 1.00e-06
  Density threshold  = 1.00e-06
  Integral threshold = 0.00e+00

  ==> Primary Basis <==

  Basis Set: STO-3G
    Blend: STO-3G
    Number of shells: 20
    Number of basis function: 28
    Number of Cartesian functions: 28
    Spherical Harmonics?: true
    Max angular momentum: 1

  ==> Pre-Iterations <==

   -------------------------------------------------------
    Irrep   Nso     Nmo     Nalpha   Nbeta   Ndocc  Nsocc
   -------------------------------------------------------
     A         28      28       0       0       0       0
   -------------------------------------------------------
    Total      28      28      17      17      17       0
   -------------------------------------------------------

  ==> Integral Setup <==

  Using in-core PK algorithm.
   Calculation information:
      Number of atoms:                  12
      Number of AO shells:              20
      Number of primitives:             60
      Number of atomic orbitals:        28
      Number of basis functions:        28

      Integral cutoff                 1.00e-12
      Number of threads:                 1

  Performing in-core PK
  Using 165242 doubles for integral storage.
  We computed 21522 shell quartets total.
  Whereas there are 22155 unique shell quartets.

  ==> DiskJK: Disk-Based J/K Matrices <==

    J tasked:                  Yes
    K tasked:                  Yes
    wK tasked:                  No
    Memory [MiB]:             5722
    Schwarz Cutoff:          1E-12

    OpenMP threads:              1

  Minimum eigenvalue in the overlap matrix is 2.0802606603E-01.
  Using Symmetric Orthogonalization.

  SCF Guess: Superposition of Atomic Densities via on-the-fly atomic UHF.

  ==> Iterations <==

                        Total Energy        Delta E     RMS |[F,P]|

   @RHF iter SAD:  -187.18106023325396   -1.87181e+02   0.00000e+00 
   @RHF iter   1:  -190.65229917446260   -3.47124e+00   1.03163e-02 DIIS
   @RHF iter   2:  -190.71057746470296   -5.82783e-02   2.62728e-03 DIIS
   @RHF iter   3:  -190.71391697601973   -3.33951e-03   5.12173e-04 DIIS
   @RHF iter   4:  -190.71412096219615   -2.03986e-04   6.29034e-05 DIIS
   @RHF iter   5:  -190.71412424903204   -3.28684e-06   1.73575e-05 DIIS
   @RHF iter   6:  -190.71412459299859   -3.43967e-07   3.43242e-06 DIIS
   @RHF iter   7:  -190.71412460586083   -1.28622e-08   7.73196e-07 DIIS
  Energy and wave function converged.


  ==> Post-Iterations <==

    Orbital Energies [Eh]
    ---------------------

    Doubly Occupied:                                                      

       1A    -20.242149     2A    -11.094247     3A    -11.040206  
       4A    -11.036100     5A     -1.279047     6A     -0.995247  
       7A     -0.899524     8A     -0.752165     9A     -0.628124  
      10A     -0.578072    11A     -0.555601    12A     -0.511417  
      13A     -0.491187    14A     -0.470370    15A     -0.453249  
      16A     -0.393339    17A     -0.344505  

    Virtual:                                                              

      18A      0.547940    19A      0.605736    20A      0.637563  
      21A      0.694399    22A      0.699444    23A      0.714597  
      24A      0.747694    25A      0.754260    26A      0.760217  
      27A      0.781643    28A      0.805006  

    Final Occupation by Irrep:
              A 
    DOCC [    17 ]

  @RHF Final Energy:  -190.71412460586083

   => Energetics <=

    Nuclear Repulsion Energy =            134.4025690189435522
    One-Electron Energy =                -526.7043074193561552
    Two-Electron Energy =                 201.5876137945517712
    Total Energy =                       -190.7141246058608317

Computation Completed


Properties will be evaluated at   0.000000,   0.000000,   0.000000 [a0]

Properties computed using the SCF density matrix

  Nuclear Dipole Moment: [e a0]
     X:    -1.1544      Y:    -3.2139      Z:    -0.4410

  Electronic Dipole Moment: [e a0]
     X:     0.8378      Y:     2.9085      Z:     0.7926

  Dipole Moment: [e a0]
     X:    -0.3166      Y:    -0.3054      Z:     0.3516     Total:     0.5631

  Dipole Moment: [D]
     X:    -0.8047      Y:    -0.7762      Z:     0.8936     Total:     1.4313


*** tstop() called on trurls-machine at Thu Mar  5 17:26:40 2020
Module time:
	user time   =       0.46 seconds =       0.01 minutes
	system time =       0.01 seconds =       0.00 minutes
	total time  =          1 seconds =       0.02 minutes
Total time:
	user time   =       2.65 seconds =       0.04 minutes
	system time =       0.08 seconds =       0.00 minutes
	total time  =          3 seconds =       0.05 minutes

*** tstart() called on trurls-machine
*** at Thu Mar  5 17:26:40 2020


  //>>>>>>>>>>>>>>>>>>>>>>>>>>>>>>>>>>>//
  //               DFMP2               //
  //<<<<<<<<<<<<<<<<<<<<<<<<<<<<<<<<<<<//

   => Loading Basis Set <=

    Name: (STO-3G AUX)
    Role: RIFIT
    Keyword: DF_BASIS_MP2
    atoms 1-3  entry C          line   270 file /Users/teague/anaconda3/envs/gen_env/share/psi4/basis/def2-qzvpp-ri.gbs 
    atoms 4    entry O          line   406 file /Users/teague/anaconda3/envs/gen_env/share/psi4/basis/def2-qzvpp-ri.gbs 
    atoms 5-12 entry H          line    24 file /Users/teague/anaconda3/envs/gen_env/share/psi4/basis/def2-qzvpp-ri.gbs 

	 --------------------------------------------------------
	                          DF-MP2                         
	      2nd-Order Density-Fitted Moller-Plesset Theory     
	              RMP2 Wavefunction,   1 Threads             
	                                                         
	        Rob Parrish, Justin Turney, Andy Simmonett,      
	           Ed Hohenstein, and C. David Sherrill          
	 --------------------------------------------------------

   => Auxiliary Basis Set <=

  Basis Set: (STO-3G AUX)
    Blend: DEF2-QZVPP-RI
    Number of shells: 260
    Number of basis function: 1012
    Number of Cartesian functions: 1332
    Spherical Harmonics?: true
    Max angular momentum: 5

	 --------------------------------------------------------
	                 NBF =    28, NAUX =  1012
	 --------------------------------------------------------
	   CLASS    FOCC     OCC    AOCC    AVIR     VIR    FVIR
	   PAIRS       0      17      17      11      11       0
	 --------------------------------------------------------

	-----------------------------------------------------------
	 ==================> DF-MP2 Energies <==================== 
	-----------------------------------------------------------
	 Reference Energy          =    -190.7141246058608317 [Eh]
	 Singles Energy            =      -0.0000000000000000 [Eh]
	 Same-Spin Energy          =      -0.0198186446420070 [Eh]
	 Opposite-Spin Energy      =      -0.1718297020975916 [Eh]
	 Correlation Energy        =      -0.1916483467395986 [Eh]
	 Total Energy              =    -190.9057729526004437 [Eh]
	-----------------------------------------------------------
	 ================> DF-SCS-MP2 Energies <================== 
	-----------------------------------------------------------
	 SCS Same-Spin Scale       =       0.3333333333333333 [-]
	 SCS Opposite-Spin Scale   =       1.2000000000000000 [-]
	 SCS Same-Spin Energy      =      -0.0066062148806690 [Eh]
	 SCS Opposite-Spin Energy  =      -0.2061956425171100 [Eh]
	 SCS Correlation Energy    =      -0.2128018573977790 [Eh]
	 SCS Total Energy          =    -190.9269264632586101 [Eh]
	-----------------------------------------------------------


*** tstop() called on trurls-machine at Thu Mar  5 17:26:40 2020
Module time:
	user time   =       0.67 seconds =       0.01 minutes
	system time =       0.02 seconds =       0.00 minutes
	total time  =          0 seconds =       0.00 minutes
Total time:
	user time   =       3.32 seconds =       0.06 minutes
	system time =       0.10 seconds =       0.00 minutes
	total time  =          3 seconds =       0.05 minutes

*** tstart() called on trurls-machine
*** at Thu Mar  5 17:26:41 2020

   => Loading Basis Set <=

    Name: STO-3G
    Role: ORBITAL
    Keyword: BASIS
    atoms 1-3  entry C          line    61 file /Users/teague/anaconda3/envs/gen_env/share/psi4/basis/sto-3g.gbs 
    atoms 4    entry O          line    81 file /Users/teague/anaconda3/envs/gen_env/share/psi4/basis/sto-3g.gbs 
    atoms 5-12 entry H          line    19 file /Users/teague/anaconda3/envs/gen_env/share/psi4/basis/sto-3g.gbs 


         ---------------------------------------------------------
                                   SCF
               by Justin Turney, Rob Parrish, Andy Simmonett
                          and Daniel G. A. Smith
                              RHF Reference
                        1 Threads,   7629 MiB Core
         ---------------------------------------------------------

  ==> Geometry <==

    Molecular point group: c1
    Full point group: C1

    Geometry (in Angstrom), charge = 0, multiplicity = 1:

       Center              X                  Y                   Z               Mass       
    ------------   -----------------  -----------------  -----------------  -----------------
         C           -1.327996644046    -0.595639565548     0.211186126104    12.000000000000
         C            0.128003355954    -0.137439565548     0.319186126104    12.000000000000
         C            1.000403355954    -0.694639565548    -0.799313873896    12.000000000000
         O            0.227403355954     1.287560434452     0.231486126104    15.994914619570
         H           -1.757196644046    -0.271039565548    -0.743413873896     1.007825032230
         H           -1.407396644046    -1.687239565548     0.276686126104     1.007825032230
         H           -1.936196644046    -0.170839565548     1.020686126104     1.007825032230
         H            0.535903355954    -0.477939565548     1.286786126104     1.007825032230
         H            1.020603355954    -1.789439565548    -0.769013873896     1.007825032230
         H            0.613003355954    -0.378739565548    -1.774613873896     1.007825032230
         H            2.025203355954    -0.322939565548    -0.702213873896     1.007825032230
         H           -0.326496644046     1.663260434452     0.933486126104     1.007825032230

  Running in c1 symmetry.

  Rotational constants: A =      0.28859  B =      0.26649  C =      0.15830 [cm^-1]
  Rotational constants: A =   8651.82195  B =   7989.22261  C =   4745.83040 [MHz]
  Nuclear repulsion =  134.402569018943552

  Charge       = 0
  Multiplicity = 1
  Electrons    = 34
  Nalpha       = 17
  Nbeta        = 17

  ==> Algorithm <==

  SCF Algorithm Type is PK.
  DIIS enabled.
  MOM disabled.
  Fractional occupation disabled.
  Guess Type is SAD.
  Energy threshold   = 1.00e-06
  Density threshold  = 1.00e-06
  Integral threshold = 0.00e+00

  ==> Primary Basis <==

  Basis Set: STO-3G
    Blend: STO-3G
    Number of shells: 20
    Number of basis function: 28
    Number of Cartesian functions: 28
    Spherical Harmonics?: true
    Max angular momentum: 1

  ==> Pre-Iterations <==

   -------------------------------------------------------
    Irrep   Nso     Nmo     Nalpha   Nbeta   Ndocc  Nsocc
   -------------------------------------------------------
     A         28      28       0       0       0       0
   -------------------------------------------------------
    Total      28      28      17      17      17       0
   -------------------------------------------------------

  ==> Integral Setup <==

  Using in-core PK algorithm.
   Calculation information:
      Number of atoms:                  12
      Number of AO shells:              20
      Number of primitives:             60
      Number of atomic orbitals:        28
      Number of basis functions:        28

      Integral cutoff                 1.00e-12
      Number of threads:                 1

  Performing in-core PK
  Using 165242 doubles for integral storage.
  We computed 21522 shell quartets total.
  Whereas there are 22155 unique shell quartets.

  ==> DiskJK: Disk-Based J/K Matrices <==

    J tasked:                  Yes
    K tasked:                  Yes
    wK tasked:                  No
    Memory [MiB]:             5722
    Schwarz Cutoff:          1E-12

    OpenMP threads:              1

  Minimum eigenvalue in the overlap matrix is 2.0802606603E-01.
  Using Symmetric Orthogonalization.

  SCF Guess: Superposition of Atomic Densities via on-the-fly atomic UHF.

  ==> Iterations <==

                        Total Energy        Delta E     RMS |[F,P]|

   @RHF iter SAD:  -187.18106023325396   -1.87181e+02   0.00000e+00 
   @RHF iter   1:  -190.65229917446260   -3.47124e+00   1.03163e-02 DIIS
   @RHF iter   2:  -190.71057746470296   -5.82783e-02   2.62728e-03 DIIS
   @RHF iter   3:  -190.71391697601973   -3.33951e-03   5.12173e-04 DIIS
   @RHF iter   4:  -190.71412096219615   -2.03986e-04   6.29034e-05 DIIS
   @RHF iter   5:  -190.71412424903204   -3.28684e-06   1.73575e-05 DIIS
   @RHF iter   6:  -190.71412459299859   -3.43967e-07   3.43242e-06 DIIS
   @RHF iter   7:  -190.71412460586083   -1.28622e-08   7.73196e-07 DIIS
  Energy and wave function converged.


  ==> Post-Iterations <==

    Orbital Energies [Eh]
    ---------------------

    Doubly Occupied:                                                      

       1A    -20.242149     2A    -11.094247     3A    -11.040206  
       4A    -11.036100     5A     -1.279047     6A     -0.995247  
       7A     -0.899524     8A     -0.752165     9A     -0.628124  
      10A     -0.578072    11A     -0.555601    12A     -0.511417  
      13A     -0.491187    14A     -0.470370    15A     -0.453249  
      16A     -0.393339    17A     -0.344505  

    Virtual:                                                              

      18A      0.547940    19A      0.605736    20A      0.637563  
      21A      0.694399    22A      0.699444    23A      0.714597  
      24A      0.747694    25A      0.754260    26A      0.760217  
      27A      0.781643    28A      0.805006  

    Final Occupation by Irrep:
              A 
    DOCC [    17 ]

  @RHF Final Energy:  -190.71412460586083

   => Energetics <=

    Nuclear Repulsion Energy =            134.4025690189435522
    One-Electron Energy =                -526.7043074193561552
    Two-Electron Energy =                 201.5876137945517712
    Total Energy =                       -190.7141246058608317

Computation Completed


Properties will be evaluated at   0.000000,   0.000000,   0.000000 [a0]

Properties computed using the SCF density matrix

  Nuclear Dipole Moment: [e a0]
     X:    -1.1544      Y:    -3.2139      Z:    -0.4410

  Electronic Dipole Moment: [e a0]
     X:     0.8378      Y:     2.9085      Z:     0.7926

  Dipole Moment: [e a0]
     X:    -0.3166      Y:    -0.3054      Z:     0.3516     Total:     0.5631

  Dipole Moment: [D]
     X:    -0.8047      Y:    -0.7762      Z:     0.8936     Total:     1.4313


*** tstop() called on trurls-machine at Thu Mar  5 17:26:42 2020
Module time:
	user time   =       0.47 seconds =       0.01 minutes
	system time =       0.01 seconds =       0.00 minutes
	total time  =          1 seconds =       0.02 minutes
Total time:
	user time   =       4.72 seconds =       0.08 minutes
	system time =       0.14 seconds =       0.00 minutes
	total time  =          5 seconds =       0.08 minutes
 MINTS: Wrapper to libmints.
   by Justin Turney

   Calculation information:
      Number of threads:                 1
      Number of atoms:                  12
      Number of AO shells:              20
      Number of SO shells:              20
      Number of primitives:             60
      Number of atomic orbitals:        28
      Number of basis functions:        28

      Number of irreps:                  1
      Integral cutoff                 0.00e+00
      Number of functions per irrep: [  28 ]

 OEINTS: Overlap, kinetic, potential, dipole, and quadrupole integrals
         stored in file 35.

      Computing two-electron integrals...done
      Computed 82405 non-zero two-electron integrals.
        Stored in file 33.


         ---------------------------------------------------------
                          Configuration Interaction
                            (a 'D E T C I' module)

                 C. David Sherrill, Daniel G. A. Smith, and
                              Matt L. Leininger
         ---------------------------------------------------------


   ==> Parameters <==

    EX LEVEL       =        2      H0 BLOCKSIZE  =     1000
    VAL EX LEVEL   =        0      H0 GUESS SIZE =     1000
    H0COUPLINGSIZE =        0      H0 COUPLING   =       NO
    MAXITER        =       24      NUM PRINT     =       20
    NUM ROOTS      =        1      ICORE         =        1
    PRINT LVL      =        1      FCI           =       NO
    R CONV         = 1.00e-06      MIXED         =      YES
    E CONV         = 1.00e-06      MIXED4        =      YES
    R4S            =       NO      REPL OTF      =       NO
    DIAG METHOD    =      SEM      FOLLOW ROOT   =        0
    PRECONDITIONER = DAVIDSON      UPDATE        = DAVIDSON
    S              =   0.0000      Ms0           =      YES
    GUESS VECTOR   =  H0BLOCK      OPENTYPE      =     NONE
    COLLAPSE SIZE  =        1      HD AVG        = EVANGELISTI
    MAX NUM VECS   =       25      REF SYM       =     AUTO
    IOPEN        =       NO

    EX ALLOW       =  1  1 
    STATE AVERAGE  =  0(1.00) 

   ==> CI Orbital and Space information <==

    RAS1 LVL      =       16      A RAS3 MAX    =        2
    RAS1 MIN      =       32      B RAS3 MAX    =        2
    A RAS1 LVL    =       16      RAS4 LVL      =       28
    A RAS1 MIN    =       15      A RAS4 MAX    =        0
    A RAS1 MAX    =       17      B RAS4 MAX    =        0
    B RAS1 LVL    =       16      RAS4 MAX      =        0
    B RAS1 MIN    =       15      A RAS34 MAX   =        2
    B RAS1 MAX    =       17      B RAS34 MAX   =        2
    RAS3 LVL      =       17      RAS34 MAX     =        2
    RAS3 MAX      =        2
   ------------------------------------
               Space    Total     A
   ------------------------------------
                 Nso       28    28
                 Nmo       28    28
               Ndocc       17    17
               Nsocc        0     0
   ------------------------------------
              CI Spaces
   ------------------------------------
        Dropped DOCC        0     0
                RAS1       17    17
                RAS2        0     0
                RAS3       11    11
                RAS4        0     0
      Active (total)       28    28
        Dropped UOCC        0     0
   ------------------------------------

   ==> Setting up CI strings <==

    There are 7668 alpha and 7668 beta strings
    The CI space requires 50304 (5.03E+04) determinants and 6 blocks

   ==> Transforming CI integrals <==

	Presorting SO-basis two-electron integrals.
	Sorting File: SO Ints (nn|nn) nbuckets = 1
	Transforming the one-electron integrals and constructing Fock matrices
	Starting first half-transformation.
	Sorting half-transformed integrals.
	First half integral transformation complete.
	Starting second half-transformation.
	Two-electron integral transformation complete.

   ==> Starting CI iterations <==

    H0 Block Eigenvalue = -190.72517144

    Simultaneous Expansion Method (Block Davidson Method)
    Using 1 initial trial vectors

     Iter   Root       Total Energy       Delta E      C RMS

   @CI  0:     0   -190.725171444392   -3.2513E+02   7.1180E-01  
   @CI  1:     0   -190.938220005109   -2.1305E-01   1.1530E-01  
   @CI  2:     0   -190.943943068536   -5.7231E-03   2.4860E-02  
   @CI  3:     0   -190.944179969873   -2.3690E-04   5.7179E-03  
   @CI  4:     0   -190.944194934700   -1.4965E-05   1.6487E-03  
   @CI  5:     0   -190.944195848459   -9.1376E-07   3.4744E-04  
   @CI  6:     0   -190.944195891927   -4.3467E-08   8.5357E-05  
   @CI  7:     0   -190.944195894598   -2.6714E-09   2.3967E-05  
   @CI  8:     0   -190.944195894828   -2.2976E-10   6.7737E-06  
   @CI  9:     0   -190.944195894846   -1.8076E-11   1.7012E-06  
   @CI 10:     0   -190.944195894847   -7.9581E-13   4.0025E-07 c

   ==> Energetics <==

    SCF energy =         -190.714124605860832
    Total CI energy =    -190.944195894846700

   ==> CISD root 0 information <==

    CISD Root 0 energy =  -190.944195894846700

   The 20 most important determinants:

    *   1    0.948884  (    0,    0)  1AX 2AX 3AX 4AX 5AX 6AX 7AX 8AX 9AX 10AX 11AX 12AX 13AX 14AX 15AX 16AX 17AX 
    *   2   -0.023974  (    2,    2)  1AX 2AX 3AX 4AX 5AX 6AX 7AX 8AX 9AX 10AX 11AX 12AX 13AX 14AX 15AX 17AX 18AX 
    *   3   -0.021267  (   90,   90)  1AX 2AX 3AX 4AX 5AX 6AX 7AX 8AX 9AX 10AX 11AX 12AX 14AX 15AX 16AX 17AX 23AX 
    *   4   -0.018270  (  157,  157)  1AX 2AX 3AX 4AX 5AX 6AX 7AX 8AX 9AX 10AX 11AX 12AX 13AX 15AX 16AX 17AX 27AX 
    *   5   -0.017647  (   91,   91)  1AX 2AX 3AX 4AX 5AX 6AX 7AX 8AX 9AX 10AX 11AX 13AX 14AX 15AX 16AX 17AX 23AX 
    *   6   -0.017641  (    3,    3)  1AX 2AX 3AX 4AX 5AX 6AX 7AX 8AX 9AX 10AX 11AX 12AX 13AX 14AX 16AX 17AX 18AX 
    *   7   -0.016532  (   13,   13)  1AX 2AX 3AX 4AX 6AX 7AX 8AX 9AX 10AX 11AX 12AX 13AX 14AX 15AX 16AX 17AX 18AX 
    *   8   -0.016069  (   37,   37)  1AX 2AX 3AX 4AX 5AX 6AX 7AX 8AX 9AX 10AX 11AX 12AX 13AX 14AX 16AX 17AX 20AX 
    *   9   -0.015942  (  125,  125)  1AX 2AX 3AX 4AX 5AX 6AX 7AX 8AX 9AX 10AX 11AX 13AX 14AX 15AX 16AX 17AX 25AX 
    *  10   -0.015349  (  179,  179)  1AX 2AX 3AX 4AX 5AX 6AX 7AX 8AX 10AX 11AX 12AX 13AX 14AX 15AX 16AX 17AX 28AX 
    *  11   -0.015312  (    2,   13)  1AX 2AX 3AX 4AX 5AA 6AX 7AX 8AX 9AX 10AX 11AX 12AX 13AX 14AX 15AX 16AB 17AX 18AX 
    *  12   -0.015312  (   13,    2)  1AX 2AX 3AX 4AX 5AB 6AX 7AX 8AX 9AX 10AX 11AX 12AX 13AX 14AX 15AX 16AA 17AX 18AX 
    *  13   -0.015159  (  139,  139)  1AX 2AX 3AX 4AX 5AX 6AX 7AX 8AX 9AX 10AX 11AX 12AX 13AX 14AX 16AX 17AX 26AX 
    *  14   -0.015032  (   53,   53)  1AX 2AX 3AX 4AX 5AX 6AX 7AX 8AX 9AX 10AX 11AX 12AX 13AX 14AX 15AX 17AX 21AX 
    *  15   -0.014650  (   21,   21)  1AX 2AX 3AX 4AX 5AX 6AX 7AX 8AX 9AX 10AX 11AX 12AX 13AX 15AX 16AX 17AX 19AX 
    *  16   -0.014585  (   20,   20)  1AX 2AX 3AX 4AX 5AX 6AX 7AX 8AX 9AX 10AX 11AX 12AX 13AX 14AX 16AX 17AX 19AX 
    *  17   -0.014531  (    9,    9)  1AX 2AX 3AX 4AX 5AX 6AX 7AX 8AX 10AX 11AX 12AX 13AX 14AX 15AX 16AX 17AX 18AX 
    *  18   -0.014383  (   42,   42)  1AX 2AX 3AX 4AX 5AX 6AX 7AX 8AX 9AX 11AX 12AX 13AX 14AX 15AX 16AX 17AX 20AX 
    *  19   -0.014053  (    1,    1)  1AX 2AX 3AX 4AX 5AX 6AX 7AX 8AX 9AX 10AX 11AX 12AX 13AX 14AX 15AX 16AX 18AX 
    *  20   -0.013927  (  126,  126)  1AX 2AX 3AX 4AX 5AX 6AX 7AX 8AX 9AX 10AX 12AX 13AX 14AX 15AX 16AX 17AX 25AX 

		 "A good bug is a dead bug" 

			 - Starship Troopers

		 "I didn't write FORTRAN.  That's the problem."

			 - Edward Valeev

*** tstart() called on trurls-machine
*** at Thu Mar  5 17:26:51 2020

   => Loading Basis Set <=

    Name: STO-3G
    Role: ORBITAL
    Keyword: BASIS
    atoms 1-3  entry C          line    61 file /Users/teague/anaconda3/envs/gen_env/share/psi4/basis/sto-3g.gbs 
    atoms 4    entry O          line    81 file /Users/teague/anaconda3/envs/gen_env/share/psi4/basis/sto-3g.gbs 
    atoms 5-12 entry H          line    19 file /Users/teague/anaconda3/envs/gen_env/share/psi4/basis/sto-3g.gbs 


         ---------------------------------------------------------
                                   SCF
               by Justin Turney, Rob Parrish, Andy Simmonett
                          and Daniel G. A. Smith
                              RHF Reference
                        1 Threads,   7629 MiB Core
         ---------------------------------------------------------

  ==> Geometry <==

    Molecular point group: c1
    Full point group: C1

    Geometry (in Angstrom), charge = 0, multiplicity = 1:

       Center              X                  Y                   Z               Mass       
    ------------   -----------------  -----------------  -----------------  -----------------
         C           -1.327996644046    -0.595639565548     0.211186126104    12.000000000000
         C            0.128003355954    -0.137439565548     0.319186126104    12.000000000000
         C            1.000403355954    -0.694639565548    -0.799313873896    12.000000000000
         O            0.227403355954     1.287560434452     0.231486126104    15.994914619570
         H           -1.757196644046    -0.271039565548    -0.743413873896     1.007825032230
         H           -1.407396644046    -1.687239565548     0.276686126104     1.007825032230
         H           -1.936196644046    -0.170839565548     1.020686126104     1.007825032230
         H            0.535903355954    -0.477939565548     1.286786126104     1.007825032230
         H            1.020603355954    -1.789439565548    -0.769013873896     1.007825032230
         H            0.613003355954    -0.378739565548    -1.774613873896     1.007825032230
         H            2.025203355954    -0.322939565548    -0.702213873896     1.007825032230
         H           -0.326496644046     1.663260434452     0.933486126104     1.007825032230

  Running in c1 symmetry.

  Rotational constants: A =      0.28859  B =      0.26649  C =      0.15830 [cm^-1]
  Rotational constants: A =   8651.82195  B =   7989.22261  C =   4745.83040 [MHz]
  Nuclear repulsion =  134.402569018943552

  Charge       = 0
  Multiplicity = 1
  Electrons    = 34
  Nalpha       = 17
  Nbeta        = 17

  ==> Algorithm <==

  SCF Algorithm Type is PK.
  DIIS enabled.
  MOM disabled.
  Fractional occupation disabled.
  Guess Type is SAD.
  Energy threshold   = 1.00e-06
  Density threshold  = 1.00e-06
  Integral threshold = 0.00e+00

  ==> Primary Basis <==

  Basis Set: STO-3G
    Blend: STO-3G
    Number of shells: 20
    Number of basis function: 28
    Number of Cartesian functions: 28
    Spherical Harmonics?: true
    Max angular momentum: 1

  ==> Pre-Iterations <==

   -------------------------------------------------------
    Irrep   Nso     Nmo     Nalpha   Nbeta   Ndocc  Nsocc
   -------------------------------------------------------
     A         28      28       0       0       0       0
   -------------------------------------------------------
    Total      28      28      17      17      17       0
   -------------------------------------------------------

  ==> Integral Setup <==

  Using in-core PK algorithm.
   Calculation information:
      Number of atoms:                  12
      Number of AO shells:              20
      Number of primitives:             60
      Number of atomic orbitals:        28
      Number of basis functions:        28

      Integral cutoff                 1.00e-12
      Number of threads:                 1

  Performing in-core PK
  Using 165242 doubles for integral storage.
  We computed 21522 shell quartets total.
  Whereas there are 22155 unique shell quartets.

  ==> DiskJK: Disk-Based J/K Matrices <==

    J tasked:                  Yes
    K tasked:                  Yes
    wK tasked:                  No
    Memory [MiB]:             5722
    Schwarz Cutoff:          1E-12

    OpenMP threads:              1

  Minimum eigenvalue in the overlap matrix is 2.0802606603E-01.
  Using Symmetric Orthogonalization.

  SCF Guess: Superposition of Atomic Densities via on-the-fly atomic UHF.

  ==> Iterations <==

                        Total Energy        Delta E     RMS |[F,P]|

   @RHF iter SAD:  -187.18106023325396   -1.87181e+02   0.00000e+00 
   @RHF iter   1:  -190.65229917446285   -3.47124e+00   1.03163e-02 DIIS
   @RHF iter   2:  -190.71057746470311   -5.82783e-02   2.62728e-03 DIIS
   @RHF iter   3:  -190.71391697601973   -3.33951e-03   5.12173e-04 DIIS
   @RHF iter   4:  -190.71412096219626   -2.03986e-04   6.29034e-05 DIIS
   @RHF iter   5:  -190.71412424903241   -3.28684e-06   1.73575e-05 DIIS
   @RHF iter   6:  -190.71412459299890   -3.43966e-07   3.43242e-06 DIIS
   @RHF iter   7:  -190.71412460586080   -1.28619e-08   7.73196e-07 DIIS
  Energy and wave function converged.


  ==> Post-Iterations <==

    Orbital Energies [Eh]
    ---------------------

    Doubly Occupied:                                                      

       1A    -20.242149     2A    -11.094247     3A    -11.040206  
       4A    -11.036100     5A     -1.279047     6A     -0.995247  
       7A     -0.899524     8A     -0.752165     9A     -0.628124  
      10A     -0.578072    11A     -0.555601    12A     -0.511417  
      13A     -0.491187    14A     -0.470370    15A     -0.453249  
      16A     -0.393339    17A     -0.344505  

    Virtual:                                                              

      18A      0.547940    19A      0.605736    20A      0.637563  
      21A      0.694399    22A      0.699444    23A      0.714597  
      24A      0.747694    25A      0.754260    26A      0.760217  
      27A      0.781643    28A      0.805006  

    Final Occupation by Irrep:
              A 
    DOCC [    17 ]

  @RHF Final Energy:  -190.71412460586080

   => Energetics <=

    Nuclear Repulsion Energy =            134.4025690189435522
    One-Electron Energy =                -526.7043074193566099
    Two-Electron Energy =                 201.5876137945522544
    Total Energy =                       -190.7141246058608033

Computation Completed


Properties will be evaluated at   0.000000,   0.000000,   0.000000 [a0]

Properties computed using the SCF density matrix

  Nuclear Dipole Moment: [e a0]
     X:    -1.1544      Y:    -3.2139      Z:    -0.4410

  Electronic Dipole Moment: [e a0]
     X:     0.8378      Y:     2.9085      Z:     0.7926

  Dipole Moment: [e a0]
     X:    -0.3166      Y:    -0.3054      Z:     0.3516     Total:     0.5631

  Dipole Moment: [D]
     X:    -0.8047      Y:    -0.7762      Z:     0.8936     Total:     1.4313


*** tstop() called on trurls-machine at Thu Mar  5 17:26:52 2020
Module time:
	user time   =       0.48 seconds =       0.01 minutes
	system time =       0.02 seconds =       0.00 minutes
	total time  =          1 seconds =       0.02 minutes
Total time:
	user time   =      14.48 seconds =       0.24 minutes
	system time =       0.32 seconds =       0.01 minutes
	total time  =         15 seconds =       0.25 minutes
 MINTS: Wrapper to libmints.
   by Justin Turney

   Calculation information:
      Number of threads:                 1
      Number of atoms:                  12
      Number of AO shells:              20
      Number of SO shells:              20
      Number of primitives:             60
      Number of atomic orbitals:        28
      Number of basis functions:        28

      Number of irreps:                  1
      Integral cutoff                 0.00e+00
      Number of functions per irrep: [  28 ]

 OEINTS: Overlap, kinetic, potential, dipole, and quadrupole integrals
         stored in file 35.

      Computing two-electron integrals...done
      Computed 82405 non-zero two-electron integrals.
        Stored in file 33.


         ---------------------------------------------------------
                          Configuration Interaction
                            (a 'D E T C I' module)

                 C. David Sherrill, Daniel G. A. Smith, and
                              Matt L. Leininger
         ---------------------------------------------------------


   ==> Parameters <==

    EX LEVEL       =       34      H0 BLOCKSIZE  =     1000
    VAL EX LEVEL   =        0      H0 GUESS SIZE =     1000
    H0COUPLINGSIZE =        0      H0 COUPLING   =       NO
    MAXITER        =       24      NUM PRINT     =       20
    NUM ROOTS      =        1      ICORE         =        1
    PRINT LVL      =        1      FCI           =      YES
    R CONV         = 1.00e-06      MIXED         =      YES
    E CONV         = 1.00e-06      MIXED4        =      YES
    R4S            =       NO      REPL OTF      =       NO
    DIAG METHOD    =      SEM      FOLLOW ROOT   =        0
    PRECONDITIONER = DAVIDSON      UPDATE        = DAVIDSON
    S              =   0.0000      Ms0           =      YES
    GUESS VECTOR   =  H0BLOCK      OPENTYPE      =     NONE
    COLLAPSE SIZE  =        1      HD AVG        = EVANGELISTI
    MAX NUM VECS   =       25      REF SYM       =     AUTO
    IOPEN        =       NO

    EX ALLOW       =  1  1  1  1  1  1  1  1  1  1  1  1  1  1  1  1  1  1  1  1  1  1  1  1  1  1  1  1  1  1  1  1  1  1 
    STATE AVERAGE  =  0(1.00) 

   ==> CI Orbital and Space information <==

   ------------------------------------
               Space    Total     A
   ------------------------------------
                 Nso       28    28
                 Nmo       28    28
               Ndocc       17    17
               Nsocc        0     0
   ------------------------------------
              CI Spaces
   ------------------------------------
        Dropped DOCC        0     0
              Active       28    28
        Dropped UOCC        0     0
   ------------------------------------

   ==> Setting up CI strings <==

