
    -----------------------------------------------------------------------
          Psi4: An Open-Source Ab Initio Electronic Structure Package
                               Psi4 1.3.2 release

                         Git: Rev {HEAD} ecbda83 


    R. M. Parrish, L. A. Burns, D. G. A. Smith, A. C. Simmonett,
    A. E. DePrince III, E. G. Hohenstein, U. Bozkaya, A. Yu. Sokolov,
    R. Di Remigio, R. M. Richard, J. F. Gonthier, A. M. James,
    H. R. McAlexander, A. Kumar, M. Saitow, X. Wang, B. P. Pritchard,
    P. Verma, H. F. Schaefer III, K. Patkowski, R. A. King, E. F. Valeev,
    F. A. Evangelista, J. M. Turney, T. D. Crawford, and C. D. Sherrill,
    J. Chem. Theory Comput. 13(7) pp 3185--3197 (2017).
    (doi: 10.1021/acs.jctc.7b00174)


                         Additional Contributions by
    P. Kraus, H. Kruse, M. H. Lechner, M. C. Schieber, R. A. Shaw,
    A. Alenaizan, R. Galvelis, Z. L. Glick, S. Lehtola, and J. P. Misiewicz

    -----------------------------------------------------------------------


    Psi4 started on: Wednesday, 04 March 2020 11:11PM

    Process ID: 1953
    Host:       trurls-machine
    PSIDATADIR: /Users/teague/anaconda3/envs/gen_env/share/psi4
    Memory:     500.0 MiB
    Threads:    1
    
  ==> Input File <==

--------------------------------------------------------------------------
"""This is a template for psi4 input format."""
import numpy
import sys

from openfermion.config import *
from openfermion.hamiltonians import MolecularData
from openfermion.ops import general_basis_change

from numpy import array

sys.path.append('/Users/teague/.local/lib/python3.7/site-packages/openfermionpsi4')
from _psi4_conversion_functions import *


# Set memory that job can use in megabytes.
memory 8000 mb

# Initialize molecular data.
_description = 'NIST'
if _description == 'None':
    _description = None
molecule = MolecularData([('C', (0.6147, 1.0867, 0.8571)), ('N', (1.9021, 1.7634, 1.0319)), ('H', (0.0879, 1.5325, 0.0061)), ('H', (0.6641, -0.0036, 0.6869)), ('H', (-0.0036, 1.257, 1.7453)), ('H', (2.4036, 1.3486, 1.8155)), ('H', (2.4869, 1.6039, 0.2133))],
                         'sto-3g',
                         1,
                         0,
                         _description,
                          filename='molecule_data/Methylamine_sto-3g_singlet_NIST')

# Set molecular geometry and symmetry.
molecule mol {
C 0.6147 1.0867 0.8571
N 1.9021 1.7634 1.0319
H 0.0879 1.5325 0.0061
H 0.6641 -0.0036 0.6869
H -0.0036 1.257 1.7453
H 2.4036 1.3486 1.8155
H 2.4869 1.6039 0.2133
symmetry c1
}
mol.set_multiplicity(1)
mol.set_molecular_charge(0)

# Set reference and guess.
if molecule.multiplicity == 1:
    set reference rhf
    set guess sad
else:
    set reference rohf
    set guess gwh

# Set global parameters of calculation.
set globals {
    basis sto-3g
    freeze_core false
    fail_on_maxiter True
    df_scf_guess false
    opdm true
    tpdm true
    soscf false
    scf_type pk
    maxiter 1e6
    num_amps_print 1e6
    r_convergence 1e-6
    d_convergence 1e-6
    e_convergence 1e-6
    ints_tolerance EQUALITY_TOLERANCE
    damping_percentage 0
}

# Run self-consistent field (SCF) calculation.
if True:
    try:
        hf_energy, hf_wavefunction = energy('scf', return_wfn=True)
        if False:
            print('Hartree-Fock energy for {} ({} electrons) is {}.'.format(
                molecule.name, molecule.n_electrons, hf_energy))
    except:
        if False:
            print('WARNING: SCF calculation failed.')
        else:
            raise
    finally:
        # Get orbitals and Fock matrix.
        molecule.hf_energy = hf_energy
        molecule.nuclear_repulsion = mol.nuclear_repulsion_energy()
        molecule.canonical_orbitals = numpy.asarray(hf_wavefunction.Ca())
        molecule.overlap_integrals = numpy.asarray(hf_wavefunction.S())
        molecule.n_orbitals = molecule.canonical_orbitals.shape[0]
        molecule.n_qubits = 2 * molecule.n_orbitals
        molecule.orbital_energies = numpy.asarray(hf_wavefunction.epsilon_a())
        molecule.fock_matrix = numpy.asarray(hf_wavefunction.Fa())

        # Get integrals using MintsHelper.
        mints = MintsHelper(hf_wavefunction.basisset())
        molecule.one_body_integrals = general_basis_change(
            numpy.asarray(mints.ao_kinetic()), molecule.canonical_orbitals, (1, 0))
        molecule.one_body_integrals += general_basis_change(
            numpy.asarray(mints.ao_potential()), molecule.canonical_orbitals, (1, 0))
        two_body_integrals = numpy.asarray(mints.ao_eri())
        two_body_integrals.reshape((molecule.n_orbitals, molecule.n_orbitals,
                                    molecule.n_orbitals, molecule.n_orbitals))
        two_body_integrals = numpy.einsum('psqr', two_body_integrals)
        two_body_integrals = general_basis_change(
            two_body_integrals, molecule.canonical_orbitals, (1, 1, 0, 0))
        molecule.two_body_integrals = two_body_integrals
        molecule.save()


# Perform MP2 energy calculation if there are at least two electrons.
if True:
    try:
        assert molecule.n_electrons > 1
        mp2_energy = energy('mp2')
        if False:
            print('MP2 energy for {} ({} electrons) is {}.'.format(
                molecule.name, molecule.n_electrons, mp2_energy))
    except:
        if False:
            print('WARNING: MP2 calculation failed.')
        else:
            raise
    else:
        molecule.mp2_energy = mp2_energy
        molecule.save()


# Perform configuration interaction singles and doubles (CISD) calculation.
if True:
    set qc_module detci
    try:
        cisd_energy, cisd_wavefunction = energy('cisd', return_wfn=True)
        if False:
            print('CISD energy for {} ({} electrons) is {}.'.format(
                molecule.name, molecule.n_electrons, cisd_energy))
    except:
        if False:
            print('WARNING: CISD calculation failed.')
        else:
            raise
    else:
        # For the functions below, "a" and "b" refer to "up and "down" spins.
        molecule.cisd_energy = cisd_energy

        # Get 1-RDM from CISD calculation.
        cisd_one_rdm_a = numpy.array(cisd_wavefunction.get_opdm(
            0, 0, 'A', True)).reshape(molecule.n_orbitals, molecule.n_orbitals)
        cisd_one_rdm_b = numpy.array(cisd_wavefunction.get_opdm(
            0, 0, 'B', True)).reshape(molecule.n_orbitals, molecule.n_orbitals)

        # Get 2-RDM from CISD calculation.
        cisd_two_rdm_aa = numpy.array(cisd_wavefunction.get_tpdm(
            'AA', False)).reshape(molecule.n_orbitals, molecule.n_orbitals,
                                  molecule.n_orbitals, molecule.n_orbitals)
        cisd_two_rdm_ab = numpy.array(cisd_wavefunction.get_tpdm(
            'AB', False)).reshape(molecule.n_orbitals, molecule.n_orbitals,
                                  molecule.n_orbitals, molecule.n_orbitals)
        cisd_two_rdm_bb = numpy.array(cisd_wavefunction.get_tpdm(
            'BB', False)).reshape(molecule.n_orbitals, molecule.n_orbitals,
                                  molecule.n_orbitals, molecule.n_orbitals)

        # Get overall RDMs.
        cisd_one_rdm, cisd_two_rdm = unpack_spatial_rdm(
            cisd_one_rdm_a, cisd_one_rdm_b, cisd_two_rdm_aa,
            cisd_two_rdm_ab, cisd_two_rdm_bb)

        # Store 1-RDM in molecule file, 2-RDM separately in other file.
        molecule.cisd_one_rdm = cisd_one_rdm
        molecule.cisd_two_rdm = cisd_two_rdm
        molecule.save()


# Perform exact diagonalization.
if True:
    set qc_module detci
    try:
        fci_energy, fci_wavefunction = energy('fci', return_wfn=True)
        if False:
            print('FCI energy for {} ({} electrons) is {}.'.format(
                molecule.name, molecule.n_electrons, fci_energy))
    except:
        if False:
            print('WARNING: FCI calculation failed.')
        else:
            raise
    finally:
        # For the functions below, "a" and "b" refer to "up and "down" spins.
        molecule.fci_energy = fci_energy

        # Get 1-RDM from FCI calculation.
        fci_one_rdm_a = numpy.array(fci_wavefunction.get_opdm(
            0, 0, 'A', True)).reshape(molecule.n_orbitals, molecule.n_orbitals)
        fci_one_rdm_b = numpy.array(fci_wavefunction.get_opdm(
            0, 0, 'B', True)).reshape(molecule.n_orbitals, molecule.n_orbitals)

        # Get 2-RDM from FCI calculation.
        fci_two_rdm_aa = numpy.array(fci_wavefunction.get_tpdm(
            'AA', False)).reshape(molecule.n_orbitals, molecule.n_orbitals,
                                  molecule.n_orbitals, molecule.n_orbitals)
        fci_two_rdm_ab = numpy.array(fci_wavefunction.get_tpdm(
            'AB', False)).reshape(molecule.n_orbitals, molecule.n_orbitals,
                                  molecule.n_orbitals, molecule.n_orbitals)
        fci_two_rdm_bb = numpy.array(fci_wavefunction.get_tpdm(
            'BB', False)).reshape(molecule.n_orbitals, molecule.n_orbitals,
                                  molecule.n_orbitals, molecule.n_orbitals)

        # Get overall RDMs.
        fci_one_rdm, fci_two_rdm = unpack_spatial_rdm(
            fci_one_rdm_a, fci_one_rdm_b,
            fci_two_rdm_aa, fci_two_rdm_ab, fci_two_rdm_bb)

        # Store 1-RDM in molecule file, 2-RDM separately in other file.
        molecule.fci_one_rdm = fci_one_rdm
        molecule.fci_two_rdm = fci_two_rdm
        molecule.save()


# Perform coupled cluster singles and doubles (CCSD) calculation.
if True:
    set qc_module ccenergy
    try:
        ccsd_energy = energy('ccsd')
        if False:
            print('CCSD energy for {} ({} electrons) is {}.'.format(
                molecule.name, molecule.n_electrons, ccsd_energy))
    except:
        if False:
            print('WARNING: CCSD calculation failed.')
        else:
            raise
    else:
        molecule.ccsd_energy = ccsd_energy

        # Merge CC amplitudes into molecule by parsing
        psi_filename = outfile_name()
        single_cc_amplitudes, double_cc_amplitudes = (
            parse_psi4_ccsd_amplitudes(
                2 * molecule.n_orbitals,
                molecule.get_n_alpha_electrons(),
                molecule.get_n_beta_electrons(),
                psi_filename))

        molecule.ccsd_single_amps = single_cc_amplitudes
        molecule.ccsd_double_amps = double_cc_amplitudes
        molecule.save()
--------------------------------------------------------------------------

  Memory set to   7.451 GiB by Python driver.

*** tstart() called on trurls-machine
*** at Wed Mar  4 23:11:58 2020

   => Loading Basis Set <=

    Name: STO-3G
    Role: ORBITAL
    Keyword: BASIS
    atoms 1   entry C          line    61 file /Users/teague/anaconda3/envs/gen_env/share/psi4/basis/sto-3g.gbs 
    atoms 2   entry N          line    71 file /Users/teague/anaconda3/envs/gen_env/share/psi4/basis/sto-3g.gbs 
    atoms 3-7 entry H          line    19 file /Users/teague/anaconda3/envs/gen_env/share/psi4/basis/sto-3g.gbs 


         ---------------------------------------------------------
                                   SCF
               by Justin Turney, Rob Parrish, Andy Simmonett
                          and Daniel G. A. Smith
                              RHF Reference
                        1 Threads,   7629 MiB Core
         ---------------------------------------------------------

  ==> Geometry <==

    Molecular point group: c1
    Full point group: C1

    Geometry (in Angstrom), charge = 0, multiplicity = 1:

       Center              X                  Y                   Z               Mass       
    ------------   -----------------  -----------------  -----------------  -----------------
         C           -0.664032586771    -0.315156989327    -0.084747808871    12.000000000000
         N            0.623367413229     0.361543010673     0.090052191129    14.003074004430
         H           -1.190832586771     0.130643010673    -0.935747808871     1.007825032230
         H           -0.614632586771    -1.405456989327    -0.254947808871     1.007825032230
         H           -1.282332586771    -0.144856989327     0.803452191129     1.007825032230
         H            1.124867413229    -0.053256989327     0.873652191129     1.007825032230
         H            1.208167413229     0.202043010673    -0.728547808871     1.007825032230

  Running in c1 symmetry.

  Rotational constants: A =      3.42658  B =      0.75773  C =      0.72911 [cm^-1]
  Rotational constants: A = 102726.29268  B =  22716.30100  C =  21858.02518 [MHz]
  Nuclear repulsion =   41.895291933936065

  Charge       = 0
  Multiplicity = 1
  Electrons    = 18
  Nalpha       = 9
  Nbeta        = 9

  ==> Algorithm <==

  SCF Algorithm Type is PK.
  DIIS enabled.
  MOM disabled.
  Fractional occupation disabled.
  Guess Type is SAD.
  Energy threshold   = 1.00e-06
  Density threshold  = 1.00e-06
  Integral threshold = 0.00e+00

  ==> Primary Basis <==

  Basis Set: STO-3G
    Blend: STO-3G
    Number of shells: 11
    Number of basis function: 15
    Number of Cartesian functions: 15
    Spherical Harmonics?: true
    Max angular momentum: 1

  ==> Pre-Iterations <==

   -------------------------------------------------------
    Irrep   Nso     Nmo     Nalpha   Nbeta   Ndocc  Nsocc
   -------------------------------------------------------
     A         15      15       0       0       0       0
   -------------------------------------------------------
    Total      15      15       9       9       9       0
   -------------------------------------------------------

  ==> Integral Setup <==

  Using in-core PK algorithm.
   Calculation information:
      Number of atoms:                   7
      Number of AO shells:              11
      Number of primitives:             33
      Number of atomic orbitals:        15
      Number of basis functions:        15

      Integral cutoff                 1.00e-12
      Number of threads:                 1

  Performing in-core PK
  Using 14520 doubles for integral storage.
  We computed 2210 shell quartets total.
  Whereas there are 2211 unique shell quartets.

  ==> DiskJK: Disk-Based J/K Matrices <==

    J tasked:                  Yes
    K tasked:                  Yes
    wK tasked:                  No
    Memory [MiB]:             5722
    Schwarz Cutoff:          1E-12

    OpenMP threads:              1

  Minimum eigenvalue in the overlap matrix is 2.2546129846E-01.
  Using Symmetric Orthogonalization.

  SCF Guess: Superposition of Atomic Densities via on-the-fly atomic UHF.

  ==> Iterations <==

                        Total Energy        Delta E     RMS |[F,P]|

   @RHF iter SAD:   -92.16172133832944   -9.21617e+01   0.00000e+00 
   @RHF iter   1:   -94.00898060189525   -1.84726e+00   1.18524e-02 DIIS
   @RHF iter   2:   -94.03050340076504   -2.15228e-02   2.85310e-03 DIIS
   @RHF iter   3:   -94.03165502854260   -1.15163e-03   5.99952e-04 DIIS
   @RHF iter   4:   -94.03172960712755   -7.45786e-05   3.37891e-05 DIIS
   @RHF iter   5:   -94.03172985453809   -2.47411e-07   8.83363e-06 DIIS
   @RHF iter   6:   -94.03172987613756   -2.15995e-08   1.53366e-06 DIIS
   @RHF iter   7:   -94.03172987683482   -6.97256e-10   2.36978e-07 DIIS
  Energy and wave function converged.


  ==> Post-Iterations <==

    Orbital Energies [Eh]
    ---------------------

    Doubly Occupied:                                                      

       1A    -15.311649     2A    -11.068350     3A     -1.119388  
       4A     -0.856145     5A     -0.613450     6A     -0.561491  
       7A     -0.508745     8A     -0.477859     9A     -0.323484  

    Virtual:                                                              

      10A      0.622738    11A      0.648785    12A      0.666559  
      13A      0.737496    14A      0.756246    15A      0.771319  

    Final Occupation by Irrep:
              A 
    DOCC [     9 ]

  @RHF Final Energy:   -94.03172987683482

   => Energetics <=

    Nuclear Repulsion Energy =             41.8952919339360648
    One-Electron Energy =                -210.1729215632412036
    Two-Electron Energy =                  74.2458997524703079
    Total Energy =                        -94.0317298768348167

Computation Completed


Properties will be evaluated at   0.000000,   0.000000,   0.000000 [a0]

Properties computed using the SCF density matrix

  Nuclear Dipole Moment: [e a0]
     X:    -0.7094      Y:    -1.1925      Z:    -0.2273

  Electronic Dipole Moment: [e a0]
     X:     0.8295      Y:     0.6144      Z:     0.1413

  Dipole Moment: [e a0]
     X:     0.1202      Y:    -0.5780      Z:    -0.0859     Total:     0.5966

  Dipole Moment: [D]
     X:     0.3054      Y:    -1.4692      Z:    -0.2184     Total:     1.5164


*** tstop() called on trurls-machine at Wed Mar  4 23:11:58 2020
Module time:
	user time   =       0.31 seconds =       0.01 minutes
	system time =       0.02 seconds =       0.00 minutes
	total time  =          0 seconds =       0.00 minutes
Total time:
	user time   =       0.31 seconds =       0.01 minutes
	system time =       0.02 seconds =       0.00 minutes
	total time  =          0 seconds =       0.00 minutes

*** tstart() called on trurls-machine
*** at Wed Mar  4 23:11:59 2020

   => Loading Basis Set <=

    Name: STO-3G
    Role: ORBITAL
    Keyword: BASIS
    atoms 1   entry C          line    61 file /Users/teague/anaconda3/envs/gen_env/share/psi4/basis/sto-3g.gbs 
    atoms 2   entry N          line    71 file /Users/teague/anaconda3/envs/gen_env/share/psi4/basis/sto-3g.gbs 
    atoms 3-7 entry H          line    19 file /Users/teague/anaconda3/envs/gen_env/share/psi4/basis/sto-3g.gbs 


         ---------------------------------------------------------
                                   SCF
               by Justin Turney, Rob Parrish, Andy Simmonett
                          and Daniel G. A. Smith
                              RHF Reference
                        1 Threads,   7629 MiB Core
         ---------------------------------------------------------

  ==> Geometry <==

    Molecular point group: c1
    Full point group: C1

    Geometry (in Angstrom), charge = 0, multiplicity = 1:

       Center              X                  Y                   Z               Mass       
    ------------   -----------------  -----------------  -----------------  -----------------
         C           -0.664032586771    -0.315156989327    -0.084747808871    12.000000000000
         N            0.623367413229     0.361543010673     0.090052191129    14.003074004430
         H           -1.190832586771     0.130643010673    -0.935747808871     1.007825032230
         H           -0.614632586771    -1.405456989327    -0.254947808871     1.007825032230
         H           -1.282332586771    -0.144856989327     0.803452191129     1.007825032230
         H            1.124867413229    -0.053256989327     0.873652191129     1.007825032230
         H            1.208167413229     0.202043010673    -0.728547808871     1.007825032230

  Running in c1 symmetry.

  Rotational constants: A =      3.42658  B =      0.75773  C =      0.72911 [cm^-1]
  Rotational constants: A = 102726.29268  B =  22716.30100  C =  21858.02518 [MHz]
  Nuclear repulsion =   41.895291933936065

  Charge       = 0
  Multiplicity = 1
  Electrons    = 18
  Nalpha       = 9
  Nbeta        = 9

  ==> Algorithm <==

  SCF Algorithm Type is PK.
  DIIS enabled.
  MOM disabled.
  Fractional occupation disabled.
  Guess Type is SAD.
  Energy threshold   = 1.00e-06
  Density threshold  = 1.00e-06
  Integral threshold = 0.00e+00

  ==> Primary Basis <==

  Basis Set: STO-3G
    Blend: STO-3G
    Number of shells: 11
    Number of basis function: 15
    Number of Cartesian functions: 15
    Spherical Harmonics?: true
    Max angular momentum: 1

  ==> Pre-Iterations <==

   -------------------------------------------------------
    Irrep   Nso     Nmo     Nalpha   Nbeta   Ndocc  Nsocc
   -------------------------------------------------------
     A         15      15       0       0       0       0
   -------------------------------------------------------
    Total      15      15       9       9       9       0
   -------------------------------------------------------

  ==> Integral Setup <==

  Using in-core PK algorithm.
   Calculation information:
      Number of atoms:                   7
      Number of AO shells:              11
      Number of primitives:             33
      Number of atomic orbitals:        15
      Number of basis functions:        15

      Integral cutoff                 1.00e-12
      Number of threads:                 1

  Performing in-core PK
  Using 14520 doubles for integral storage.
  We computed 2210 shell quartets total.
  Whereas there are 2211 unique shell quartets.

  ==> DiskJK: Disk-Based J/K Matrices <==

    J tasked:                  Yes
    K tasked:                  Yes
    wK tasked:                  No
    Memory [MiB]:             5722
    Schwarz Cutoff:          1E-12

    OpenMP threads:              1

  Minimum eigenvalue in the overlap matrix is 2.2546129846E-01.
  Using Symmetric Orthogonalization.

  SCF Guess: Superposition of Atomic Densities via on-the-fly atomic UHF.

  ==> Iterations <==

                        Total Energy        Delta E     RMS |[F,P]|

   @RHF iter SAD:   -92.16172133832944   -9.21617e+01   0.00000e+00 
   @RHF iter   1:   -94.00898060189532   -1.84726e+00   1.18524e-02 DIIS
   @RHF iter   2:   -94.03050340076510   -2.15228e-02   2.85310e-03 DIIS
   @RHF iter   3:   -94.03165502854254   -1.15163e-03   5.99952e-04 DIIS
   @RHF iter   4:   -94.03172960712749   -7.45786e-05   3.37891e-05 DIIS
   @RHF iter   5:   -94.03172985453818   -2.47411e-07   8.83363e-06 DIIS
   @RHF iter   6:   -94.03172987613765   -2.15995e-08   1.53366e-06 DIIS
   @RHF iter   7:   -94.03172987683487   -6.97227e-10   2.36978e-07 DIIS
  Energy and wave function converged.


  ==> Post-Iterations <==

    Orbital Energies [Eh]
    ---------------------

    Doubly Occupied:                                                      

       1A    -15.311649     2A    -11.068350     3A     -1.119388  
       4A     -0.856145     5A     -0.613450     6A     -0.561491  
       7A     -0.508745     8A     -0.477859     9A     -0.323484  

    Virtual:                                                              

      10A      0.622738    11A      0.648785    12A      0.666559  
      13A      0.737496    14A      0.756246    15A      0.771319  

    Final Occupation by Irrep:
              A 
    DOCC [     9 ]

  @RHF Final Energy:   -94.03172987683487

   => Energetics <=

    Nuclear Repulsion Energy =             41.8952919339360648
    One-Electron Energy =                -210.1729215632413457
    Two-Electron Energy =                  74.2458997524704216
    Total Energy =                        -94.0317298768348735

Computation Completed


Properties will be evaluated at   0.000000,   0.000000,   0.000000 [a0]

Properties computed using the SCF density matrix

  Nuclear Dipole Moment: [e a0]
     X:    -0.7094      Y:    -1.1925      Z:    -0.2273

  Electronic Dipole Moment: [e a0]
     X:     0.8295      Y:     0.6144      Z:     0.1413

  Dipole Moment: [e a0]
     X:     0.1202      Y:    -0.5780      Z:    -0.0859     Total:     0.5966

  Dipole Moment: [D]
     X:     0.3054      Y:    -1.4692      Z:    -0.2184     Total:     1.5164


*** tstop() called on trurls-machine at Wed Mar  4 23:11:59 2020
Module time:
	user time   =       0.28 seconds =       0.00 minutes
	system time =       0.01 seconds =       0.00 minutes
	total time  =          0 seconds =       0.00 minutes
Total time:
	user time   =       0.77 seconds =       0.01 minutes
	system time =       0.05 seconds =       0.00 minutes
	total time  =          1 seconds =       0.02 minutes

*** tstart() called on trurls-machine
*** at Wed Mar  4 23:11:59 2020


  //>>>>>>>>>>>>>>>>>>>>>>>>>>>>>>>>>>>//
  //               DFMP2               //
  //<<<<<<<<<<<<<<<<<<<<<<<<<<<<<<<<<<<//

   => Loading Basis Set <=

    Name: (STO-3G AUX)
    Role: RIFIT
    Keyword: DF_BASIS_MP2
    atoms 1   entry C          line   270 file /Users/teague/anaconda3/envs/gen_env/share/psi4/basis/def2-qzvpp-ri.gbs 
    atoms 2   entry N          line   338 file /Users/teague/anaconda3/envs/gen_env/share/psi4/basis/def2-qzvpp-ri.gbs 
    atoms 3-7 entry H          line    24 file /Users/teague/anaconda3/envs/gen_env/share/psi4/basis/def2-qzvpp-ri.gbs 

	 --------------------------------------------------------
	                          DF-MP2                         
	      2nd-Order Density-Fitted Moller-Plesset Theory     
	              RMP2 Wavefunction,   1 Threads             
	                                                         
	        Rob Parrish, Justin Turney, Andy Simmonett,      
	           Ed Hohenstein, and C. David Sherrill          
	 --------------------------------------------------------

   => Auxiliary Basis Set <=

  Basis Set: (STO-3G AUX)
    Blend: DEF2-QZVPP-RI
    Number of shells: 146
    Number of basis function: 562
    Number of Cartesian functions: 737
    Spherical Harmonics?: true
    Max angular momentum: 5

	 --------------------------------------------------------
	                 NBF =    15, NAUX =   562
	 --------------------------------------------------------
	   CLASS    FOCC     OCC    AOCC    AVIR     VIR    FVIR
	   PAIRS       0       9       9       6       6       0
	 --------------------------------------------------------

	-----------------------------------------------------------
	 ==================> DF-MP2 Energies <==================== 
	-----------------------------------------------------------
	 Reference Energy          =     -94.0317298768348735 [Eh]
	 Singles Energy            =      -0.0000000000000000 [Eh]
	 Same-Spin Energy          =      -0.0087416353424546 [Eh]
	 Opposite-Spin Energy      =      -0.0905025322057365 [Eh]
	 Correlation Energy        =      -0.0992441675481911 [Eh]
	 Total Energy              =     -94.1309740443830663 [Eh]
	-----------------------------------------------------------
	 ================> DF-SCS-MP2 Energies <================== 
	-----------------------------------------------------------
	 SCS Same-Spin Scale       =       0.3333333333333333 [-]
	 SCS Opposite-Spin Scale   =       1.2000000000000000 [-]
	 SCS Same-Spin Energy      =      -0.0029138784474849 [Eh]
	 SCS Opposite-Spin Energy  =      -0.1086030386468839 [Eh]
	 SCS Correlation Energy    =      -0.1115169170943687 [Eh]
	 SCS Total Energy          =     -94.1432467939292366 [Eh]
	-----------------------------------------------------------


*** tstop() called on trurls-machine at Wed Mar  4 23:11:59 2020
Module time:
	user time   =       0.25 seconds =       0.00 minutes
	system time =       0.01 seconds =       0.00 minutes
	total time  =          0 seconds =       0.00 minutes
Total time:
	user time   =       1.02 seconds =       0.02 minutes
	system time =       0.06 seconds =       0.00 minutes
	total time  =          1 seconds =       0.02 minutes

*** tstart() called on trurls-machine
*** at Wed Mar  4 23:11:59 2020

   => Loading Basis Set <=

    Name: STO-3G
    Role: ORBITAL
    Keyword: BASIS
    atoms 1   entry C          line    61 file /Users/teague/anaconda3/envs/gen_env/share/psi4/basis/sto-3g.gbs 
    atoms 2   entry N          line    71 file /Users/teague/anaconda3/envs/gen_env/share/psi4/basis/sto-3g.gbs 
    atoms 3-7 entry H          line    19 file /Users/teague/anaconda3/envs/gen_env/share/psi4/basis/sto-3g.gbs 


         ---------------------------------------------------------
                                   SCF
               by Justin Turney, Rob Parrish, Andy Simmonett
                          and Daniel G. A. Smith
                              RHF Reference
                        1 Threads,   7629 MiB Core
         ---------------------------------------------------------

  ==> Geometry <==

    Molecular point group: c1
    Full point group: C1

    Geometry (in Angstrom), charge = 0, multiplicity = 1:

       Center              X                  Y                   Z               Mass       
    ------------   -----------------  -----------------  -----------------  -----------------
         C           -0.664032586771    -0.315156989327    -0.084747808871    12.000000000000
         N            0.623367413229     0.361543010673     0.090052191129    14.003074004430
         H           -1.190832586771     0.130643010673    -0.935747808871     1.007825032230
         H           -0.614632586771    -1.405456989327    -0.254947808871     1.007825032230
         H           -1.282332586771    -0.144856989327     0.803452191129     1.007825032230
         H            1.124867413229    -0.053256989327     0.873652191129     1.007825032230
         H            1.208167413229     0.202043010673    -0.728547808871     1.007825032230

  Running in c1 symmetry.

  Rotational constants: A =      3.42658  B =      0.75773  C =      0.72911 [cm^-1]
  Rotational constants: A = 102726.29268  B =  22716.30100  C =  21858.02518 [MHz]
  Nuclear repulsion =   41.895291933936065

  Charge       = 0
  Multiplicity = 1
  Electrons    = 18
  Nalpha       = 9
  Nbeta        = 9

  ==> Algorithm <==

  SCF Algorithm Type is PK.
  DIIS enabled.
  MOM disabled.
  Fractional occupation disabled.
  Guess Type is SAD.
  Energy threshold   = 1.00e-06
  Density threshold  = 1.00e-06
  Integral threshold = 0.00e+00

  ==> Primary Basis <==

  Basis Set: STO-3G
    Blend: STO-3G
    Number of shells: 11
    Number of basis function: 15
    Number of Cartesian functions: 15
    Spherical Harmonics?: true
    Max angular momentum: 1

  ==> Pre-Iterations <==

   -------------------------------------------------------
    Irrep   Nso     Nmo     Nalpha   Nbeta   Ndocc  Nsocc
   -------------------------------------------------------
     A         15      15       0       0       0       0
   -------------------------------------------------------
    Total      15      15       9       9       9       0
   -------------------------------------------------------

  ==> Integral Setup <==

  Using in-core PK algorithm.
   Calculation information:
      Number of atoms:                   7
      Number of AO shells:              11
      Number of primitives:             33
      Number of atomic orbitals:        15
      Number of basis functions:        15

      Integral cutoff                 1.00e-12
      Number of threads:                 1

  Performing in-core PK
  Using 14520 doubles for integral storage.
  We computed 2210 shell quartets total.
  Whereas there are 2211 unique shell quartets.

  ==> DiskJK: Disk-Based J/K Matrices <==

    J tasked:                  Yes
    K tasked:                  Yes
    wK tasked:                  No
    Memory [MiB]:             5722
    Schwarz Cutoff:          1E-12

    OpenMP threads:              1

  Minimum eigenvalue in the overlap matrix is 2.2546129846E-01.
  Using Symmetric Orthogonalization.

  SCF Guess: Superposition of Atomic Densities via on-the-fly atomic UHF.

  ==> Iterations <==

                        Total Energy        Delta E     RMS |[F,P]|

   @RHF iter SAD:   -92.16172133832944   -9.21617e+01   0.00000e+00 
   @RHF iter   1:   -94.00898060189522   -1.84726e+00   1.18524e-02 DIIS
   @RHF iter   2:   -94.03050340076511   -2.15228e-02   2.85310e-03 DIIS
   @RHF iter   3:   -94.03165502854250   -1.15163e-03   5.99952e-04 DIIS
   @RHF iter   4:   -94.03172960712753   -7.45786e-05   3.37891e-05 DIIS
   @RHF iter   5:   -94.03172985453821   -2.47411e-07   8.83363e-06 DIIS
   @RHF iter   6:   -94.03172987613759   -2.15994e-08   1.53366e-06 DIIS
   @RHF iter   7:   -94.03172987683490   -6.97312e-10   2.36978e-07 DIIS
  Energy and wave function converged.


  ==> Post-Iterations <==

    Orbital Energies [Eh]
    ---------------------

    Doubly Occupied:                                                      

       1A    -15.311649     2A    -11.068350     3A     -1.119388  
       4A     -0.856145     5A     -0.613450     6A     -0.561491  
       7A     -0.508745     8A     -0.477859     9A     -0.323484  

    Virtual:                                                              

      10A      0.622738    11A      0.648785    12A      0.666559  
      13A      0.737496    14A      0.756246    15A      0.771319  

    Final Occupation by Irrep:
              A 
    DOCC [     9 ]

  @RHF Final Energy:   -94.03172987683490

   => Energetics <=

    Nuclear Repulsion Energy =             41.8952919339360648
    One-Electron Energy =                -210.1729215632411183
    Two-Electron Energy =                  74.2458997524701658
    Total Energy =                        -94.0317298768349019

Computation Completed


Properties will be evaluated at   0.000000,   0.000000,   0.000000 [a0]

Properties computed using the SCF density matrix

  Nuclear Dipole Moment: [e a0]
     X:    -0.7094      Y:    -1.1925      Z:    -0.2273

  Electronic Dipole Moment: [e a0]
     X:     0.8295      Y:     0.6144      Z:     0.1413

  Dipole Moment: [e a0]
     X:     0.1202      Y:    -0.5780      Z:    -0.0859     Total:     0.5966

  Dipole Moment: [D]
     X:     0.3054      Y:    -1.4692      Z:    -0.2184     Total:     1.5164


*** tstop() called on trurls-machine at Wed Mar  4 23:12:00 2020
Module time:
	user time   =       0.31 seconds =       0.01 minutes
	system time =       0.01 seconds =       0.00 minutes
	total time  =          1 seconds =       0.02 minutes
Total time:
	user time   =       1.44 seconds =       0.02 minutes
	system time =       0.09 seconds =       0.00 minutes
	total time  =          2 seconds =       0.03 minutes
 MINTS: Wrapper to libmints.
   by Justin Turney

   Calculation information:
      Number of threads:                 1
      Number of atoms:                   7
      Number of AO shells:              11
      Number of SO shells:              11
      Number of primitives:             33
      Number of atomic orbitals:        15
      Number of basis functions:        15

      Number of irreps:                  1
      Integral cutoff                 0.00e+00
      Number of functions per irrep: [  15 ]

 OEINTS: Overlap, kinetic, potential, dipole, and quadrupole integrals
         stored in file 35.

      Computing two-electron integrals...done
      Computed 7140 non-zero two-electron integrals.
        Stored in file 33.


         ---------------------------------------------------------
                          Configuration Interaction
                            (a 'D E T C I' module)

                 C. David Sherrill, Daniel G. A. Smith, and
                              Matt L. Leininger
         ---------------------------------------------------------


   ==> Parameters <==

    EX LEVEL       =        2      H0 BLOCKSIZE  =     1000
    VAL EX LEVEL   =        0      H0 GUESS SIZE =     1000
    H0COUPLINGSIZE =        0      H0 COUPLING   =       NO
    MAXITER        =       24      NUM PRINT     =       20
    NUM ROOTS      =        1      ICORE         =        1
    PRINT LVL      =        1      FCI           =       NO
    R CONV         = 1.00e-06      MIXED         =      YES
    E CONV         = 1.00e-06      MIXED4        =      YES
    R4S            =       NO      REPL OTF      =       NO
    DIAG METHOD    =      SEM      FOLLOW ROOT   =        0
    PRECONDITIONER = DAVIDSON      UPDATE        = DAVIDSON
    S              =   0.0000      Ms0           =      YES
    GUESS VECTOR   =  H0BLOCK      OPENTYPE      =     NONE
    COLLAPSE SIZE  =        1      HD AVG        = EVANGELISTI
    MAX NUM VECS   =       25      REF SYM       =     AUTO
    IOPEN        =       NO

    EX ALLOW       =  1  1 
    STATE AVERAGE  =  0(1.00) 

   ==> CI Orbital and Space information <==

    RAS1 LVL      =        8      A RAS3 MAX    =        2
    RAS1 MIN      =       16      B RAS3 MAX    =        2
    A RAS1 LVL    =        8      RAS4 LVL      =       15
    A RAS1 MIN    =        7      A RAS4 MAX    =        0
    A RAS1 MAX    =        9      B RAS4 MAX    =        0
    B RAS1 LVL    =        8      RAS4 MAX      =        0
    B RAS1 MIN    =        7      A RAS34 MAX   =        2
    B RAS1 MAX    =        9      B RAS34 MAX   =        2
    RAS3 LVL      =        9      RAS34 MAX     =        2
    RAS3 MAX      =        2
   ------------------------------------
               Space    Total     A
   ------------------------------------
                 Nso       15    15
                 Nmo       15    15
               Ndocc        9     9
               Nsocc        0     0
   ------------------------------------
              CI Spaces
   ------------------------------------
        Dropped DOCC        0     0
                RAS1        9     9
                RAS2        0     0
                RAS3        6     6
                RAS4        0     0
      Active (total)       15    15
        Dropped UOCC        0     0
   ------------------------------------

   ==> Setting up CI strings <==

    There are 595 alpha and 595 beta strings
    The CI space requires 4105 (4.10E+03) determinants and 6 blocks

   ==> Transforming CI integrals <==

	Presorting SO-basis two-electron integrals.
	Sorting File: SO Ints (nn|nn) nbuckets = 1
	Transforming the one-electron integrals and constructing Fock matrices
	Starting first half-transformation.
	Sorting half-transformed integrals.
	First half integral transformation complete.
	Starting second half-transformation.
	Two-electron integral transformation complete.

   ==> Starting CI iterations <==

    H0 Block Eigenvalue = -94.08026009

    Simultaneous Expansion Method (Block Davidson Method)
    Using 1 initial trial vectors

     Iter   Root       Total Energy       Delta E      C RMS

   @CI  0:     0    -94.080260092564   -1.3598E+02   4.2880E-01  
   @CI  1:     0    -94.156456705304   -7.6197E-02   7.3095E-02  
   @CI  2:     0    -94.158635262561   -2.1786E-03   1.7958E-02  
   @CI  3:     0    -94.158747635946   -1.1237E-04   3.8963E-03  
   @CI  4:     0    -94.158754973323   -7.3374E-06   1.0097E-03  
   @CI  5:     0    -94.158755330044   -3.5672E-07   2.1629E-04  
   @CI  6:     0    -94.158755346437   -1.6393E-08   5.1944E-05  
   @CI  7:     0    -94.158755347734   -1.2967E-09   1.5909E-05  
   @CI  8:     0    -94.158755347821   -8.7169E-11   3.5411E-06  
   @CI  9:     0    -94.158755347826   -4.8033E-12   7.3790E-07 c

   ==> Energetics <==

    SCF energy =          -94.031729876834902
    Total CI energy =     -94.158755347825817

   ==> CISD root 0 information <==

    CISD Root 0 energy =   -94.158755347825817

   The 20 most important determinants:

    *   1    0.969251  (    0,    0)  1AX 2AX 3AX 4AX 5AX 6AX 7AX 8AX 9AX 
    *   2   -0.040223  (   11,   11)  1AX 2AX 3AX 4AX 5AX 6AX 7AX 9AX 11AX 
    *   3   -0.039246  (   21,   21)  1AX 2AX 3AX 4AX 5AX 6AX 8AX 9AX 12AX 
    *   4   -0.032570  (   47,   47)  1AX 2AX 3AX 4AX 5AX 6AX 7AX 9AX 15AX 
    *   5    0.032406  (   14,   47)  1AX 2AX 3AX 4AX 5AB 6AX 7AX 8AA 9AX 11AA 15AB 
    *   6    0.032406  (   47,   14)  1AX 2AX 3AX 4AX 5AA 6AX 7AX 8AB 9AX 11AB 15AA 
    *   7   -0.031579  (   50,   50)  1AX 2AX 3AX 4AX 6AX 7AX 8AX 9AX 15AX 
    *   8   -0.031170  (   14,   14)  1AX 2AX 3AX 4AX 6AX 7AX 8AX 9AX 11AX 
    *   9   -0.029000  (   22,   22)  1AX 2AX 3AX 4AX 5AX 7AX 8AX 9AX 12AX 
    *  10    0.027702  (   11,   50)  1AX 2AX 3AX 4AX 5AA 6AX 7AX 8AB 9AX 11AA 15AB 
    *  11    0.027702  (   50,   11)  1AX 2AX 3AX 4AX 5AB 6AX 7AX 8AA 9AX 11AB 15AA 
    *  12   -0.027173  (   40,   40)  1AX 2AX 3AX 4AX 5AX 7AX 8AX 9AX 14AX 
    *  13   -0.025687  (   33,   33)  1AX 2AX 3AX 5AX 6AX 7AX 8AX 9AX 13AX 
    *  14   -0.024343  (    7,    7)  1AX 2AX 4AX 5AX 6AX 7AX 8AX 9AX 10AX 
    *  15   -0.022508  (   39,   39)  1AX 2AX 3AX 4AX 5AX 6AX 8AX 9AX 14AX 
    *  16   -0.021893  (    3,    3)  1AX 2AX 3AX 4AX 5AX 6AX 8AX 9AX 10AX 
    *  17   -0.021235  (   31,   31)  1AX 2AX 3AX 4AX 5AX 7AX 8AX 9AX 13AX 
    *  18   -0.020802  (   21,   40)  1AX 2AX 3AX 4AX 5AX 6AA 7AB 8AX 9AX 12AA 14AB 
    *  19   -0.020802  (   40,   21)  1AX 2AX 3AX 4AX 5AX 6AB 7AA 8AX 9AX 12AB 14AA 
    *  20   -0.019956  (    1,    1)  1AX 2AX 3AX 4AX 5AX 6AX 7AX 8AX 10AX 

		 "A good bug is a dead bug" 

			 - Starship Troopers

		 "I didn't write FORTRAN.  That's the problem."

			 - Edward Valeev

*** tstart() called on trurls-machine
*** at Wed Mar  4 23:12:00 2020

   => Loading Basis Set <=

    Name: STO-3G
    Role: ORBITAL
    Keyword: BASIS
    atoms 1   entry C          line    61 file /Users/teague/anaconda3/envs/gen_env/share/psi4/basis/sto-3g.gbs 
    atoms 2   entry N          line    71 file /Users/teague/anaconda3/envs/gen_env/share/psi4/basis/sto-3g.gbs 
    atoms 3-7 entry H          line    19 file /Users/teague/anaconda3/envs/gen_env/share/psi4/basis/sto-3g.gbs 


         ---------------------------------------------------------
                                   SCF
               by Justin Turney, Rob Parrish, Andy Simmonett
                          and Daniel G. A. Smith
                              RHF Reference
                        1 Threads,   7629 MiB Core
         ---------------------------------------------------------

  ==> Geometry <==

    Molecular point group: c1
    Full point group: C1

    Geometry (in Angstrom), charge = 0, multiplicity = 1:

       Center              X                  Y                   Z               Mass       
    ------------   -----------------  -----------------  -----------------  -----------------
         C           -0.664032586771    -0.315156989327    -0.084747808871    12.000000000000
         N            0.623367413229     0.361543010673     0.090052191129    14.003074004430
         H           -1.190832586771     0.130643010673    -0.935747808871     1.007825032230
         H           -0.614632586771    -1.405456989327    -0.254947808871     1.007825032230
         H           -1.282332586771    -0.144856989327     0.803452191129     1.007825032230
         H            1.124867413229    -0.053256989327     0.873652191129     1.007825032230
         H            1.208167413229     0.202043010673    -0.728547808871     1.007825032230

  Running in c1 symmetry.

  Rotational constants: A =      3.42658  B =      0.75773  C =      0.72911 [cm^-1]
  Rotational constants: A = 102726.29268  B =  22716.30100  C =  21858.02518 [MHz]
  Nuclear repulsion =   41.895291933936065

  Charge       = 0
  Multiplicity = 1
  Electrons    = 18
  Nalpha       = 9
  Nbeta        = 9

  ==> Algorithm <==

  SCF Algorithm Type is PK.
  DIIS enabled.
  MOM disabled.
  Fractional occupation disabled.
  Guess Type is SAD.
  Energy threshold   = 1.00e-06
  Density threshold  = 1.00e-06
  Integral threshold = 0.00e+00

  ==> Primary Basis <==

  Basis Set: STO-3G
    Blend: STO-3G
    Number of shells: 11
    Number of basis function: 15
    Number of Cartesian functions: 15
    Spherical Harmonics?: true
    Max angular momentum: 1

  ==> Pre-Iterations <==

   -------------------------------------------------------
    Irrep   Nso     Nmo     Nalpha   Nbeta   Ndocc  Nsocc
   -------------------------------------------------------
     A         15      15       0       0       0       0
   -------------------------------------------------------
    Total      15      15       9       9       9       0
   -------------------------------------------------------

  ==> Integral Setup <==

  Using in-core PK algorithm.
   Calculation information:
      Number of atoms:                   7
      Number of AO shells:              11
      Number of primitives:             33
      Number of atomic orbitals:        15
      Number of basis functions:        15

      Integral cutoff                 1.00e-12
      Number of threads:                 1

  Performing in-core PK
  Using 14520 doubles for integral storage.
  We computed 2210 shell quartets total.
  Whereas there are 2211 unique shell quartets.

  ==> DiskJK: Disk-Based J/K Matrices <==

    J tasked:                  Yes
    K tasked:                  Yes
    wK tasked:                  No
    Memory [MiB]:             5722
    Schwarz Cutoff:          1E-12

    OpenMP threads:              1

  Minimum eigenvalue in the overlap matrix is 2.2546129846E-01.
  Using Symmetric Orthogonalization.

  SCF Guess: Superposition of Atomic Densities via on-the-fly atomic UHF.

  ==> Iterations <==

                        Total Energy        Delta E     RMS |[F,P]|

   @RHF iter SAD:   -92.16172133832944   -9.21617e+01   0.00000e+00 
   @RHF iter   1:   -94.00898060189530   -1.84726e+00   1.18524e-02 DIIS
   @RHF iter   2:   -94.03050340076510   -2.15228e-02   2.85310e-03 DIIS
   @RHF iter   3:   -94.03165502854253   -1.15163e-03   5.99952e-04 DIIS
   @RHF iter   4:   -94.03172960712740   -7.45786e-05   3.37891e-05 DIIS
   @RHF iter   5:   -94.03172985453817   -2.47411e-07   8.83363e-06 DIIS
   @RHF iter   6:   -94.03172987613759   -2.15994e-08   1.53366e-06 DIIS
   @RHF iter   7:   -94.03172987683479   -6.97199e-10   2.36978e-07 DIIS
  Energy and wave function converged.


  ==> Post-Iterations <==

    Orbital Energies [Eh]
    ---------------------

    Doubly Occupied:                                                      

       1A    -15.311649     2A    -11.068350     3A     -1.119388  
       4A     -0.856145     5A     -0.613450     6A     -0.561491  
       7A     -0.508745     8A     -0.477859     9A     -0.323484  

    Virtual:                                                              

      10A      0.622738    11A      0.648785    12A      0.666559  
      13A      0.737496    14A      0.756246    15A      0.771319  

    Final Occupation by Irrep:
              A 
    DOCC [     9 ]

  @RHF Final Energy:   -94.03172987683479

   => Energetics <=

    Nuclear Repulsion Energy =             41.8952919339360648
    One-Electron Energy =                -210.1729215632410614
    Two-Electron Energy =                  74.2458997524702227
    Total Energy =                        -94.0317298768347882

Computation Completed


Properties will be evaluated at   0.000000,   0.000000,   0.000000 [a0]

Properties computed using the SCF density matrix

  Nuclear Dipole Moment: [e a0]
     X:    -0.7094      Y:    -1.1925      Z:    -0.2273

  Electronic Dipole Moment: [e a0]
     X:     0.8295      Y:     0.6144      Z:     0.1413

  Dipole Moment: [e a0]
     X:     0.1202      Y:    -0.5780      Z:    -0.0859     Total:     0.5966

  Dipole Moment: [D]
     X:     0.3054      Y:    -1.4692      Z:    -0.2184     Total:     1.5164


*** tstop() called on trurls-machine at Wed Mar  4 23:12:01 2020
Module time:
	user time   =       0.31 seconds =       0.01 minutes
	system time =       0.01 seconds =       0.00 minutes
	total time  =          1 seconds =       0.02 minutes
Total time:
	user time   =       2.53 seconds =       0.04 minutes
	system time =       0.16 seconds =       0.00 minutes
	total time  =          3 seconds =       0.05 minutes
 MINTS: Wrapper to libmints.
   by Justin Turney

   Calculation information:
      Number of threads:                 1
      Number of atoms:                   7
      Number of AO shells:              11
      Number of SO shells:              11
      Number of primitives:             33
      Number of atomic orbitals:        15
      Number of basis functions:        15

      Number of irreps:                  1
      Integral cutoff                 0.00e+00
      Number of functions per irrep: [  15 ]

 OEINTS: Overlap, kinetic, potential, dipole, and quadrupole integrals
         stored in file 35.

      Computing two-electron integrals...done
      Computed 7140 non-zero two-electron integrals.
        Stored in file 33.


         ---------------------------------------------------------
                          Configuration Interaction
                            (a 'D E T C I' module)

                 C. David Sherrill, Daniel G. A. Smith, and
                              Matt L. Leininger
         ---------------------------------------------------------


   ==> Parameters <==

    EX LEVEL       =       18      H0 BLOCKSIZE  =     1000
    VAL EX LEVEL   =        0      H0 GUESS SIZE =     1000
    H0COUPLINGSIZE =        0      H0 COUPLING   =       NO
    MAXITER        =       24      NUM PRINT     =       20
    NUM ROOTS      =        1      ICORE         =        1
    PRINT LVL      =        1      FCI           =      YES
    R CONV         = 1.00e-06      MIXED         =      YES
    E CONV         = 1.00e-06      MIXED4        =      YES
    R4S            =       NO      REPL OTF      =       NO
    DIAG METHOD    =      SEM      FOLLOW ROOT   =        0
    PRECONDITIONER = DAVIDSON      UPDATE        = DAVIDSON
    S              =   0.0000      Ms0           =      YES
    GUESS VECTOR   =  H0BLOCK      OPENTYPE      =     NONE
    COLLAPSE SIZE  =        1      HD AVG        = EVANGELISTI
    MAX NUM VECS   =       25      REF SYM       =     AUTO
    IOPEN        =       NO

    EX ALLOW       =  1  1  1  1  1  1  1  1  1  1  1  1  1  1  1  1  1  1 
    STATE AVERAGE  =  0(1.00) 

   ==> CI Orbital and Space information <==

   ------------------------------------
               Space    Total     A
   ------------------------------------
                 Nso       15    15
                 Nmo       15    15
               Ndocc        9     9
               Nsocc        0     0
   ------------------------------------
              CI Spaces
   ------------------------------------
        Dropped DOCC        0     0
              Active       15    15
        Dropped UOCC        0     0
   ------------------------------------

   ==> Setting up CI strings <==

    There are 5005 alpha and 5005 beta strings
    The CI space requires 25050025 (2.51E+07) determinants and 1 blocks

   ==> Transforming CI integrals <==

	Presorting SO-basis two-electron integrals.
	Sorting File: SO Ints (nn|nn) nbuckets = 1
	Transforming the one-electron integrals and constructing Fock matrices
	Starting first half-transformation.
	Sorting half-transformed integrals.
	First half integral transformation complete.
	Starting second half-transformation.
	Two-electron integral transformation complete.

   ==> Starting CI iterations <==

    H0 Block Eigenvalue = -94.08026009

    Simultaneous Expansion Method (Block Davidson Method)
    Using 1 initial trial vectors

     Iter   Root       Total Energy       Delta E      C RMS

   @CI  0:     0    -94.080260092566   -1.3598E+02   4.3970E-01  
   @CI  1:     0    -94.160081265807   -7.9821E-02   1.4537E-01  
   @CI  2:     0    -94.165968237664   -5.8870E-03   4.8510E-02  

Traceback (most recent call last):
  File "/Users/teague/anaconda3/envs/gen_env/bin/psi4", line 287, in <module>
    exec(content)
  File "<string>", line 174, in <module>

NameError: name 'fci_energy' is not defined


Printing out the relevant lines from the Psithon --> Python processed input file:
                print('WARNING: FCI calculation failed.')
            else:
                raise
        finally:
           
-->         molecule.fci_energy = fci_energy
           
            fci_one_rdm_a = numpy.array(fci_wavefunction.get_opdm(
                0, 0, 'A', True)).reshape(molecule.n_orbitals, molecule.n_orbitals)
            fci_one_rdm_b = numpy.array(fci_wavefunction.get_opdm(
                0, 0, 'B', True)).reshape(molecule.n_orbitals, molecule.n_orbitals)

    Psi4 stopped on: Wednesday, 04 March 2020 11:13PM
    Psi4 wall time for execution: 0:01:56.90

*** Psi4 encountered an error. Buy a developer more coffee!
*** Resources and help at github.com/psi4/psi4.
