
    -----------------------------------------------------------------------
          Psi4: An Open-Source Ab Initio Electronic Structure Package
                               Psi4 1.3.2 release

                         Git: Rev {HEAD} ecbda83 


    R. M. Parrish, L. A. Burns, D. G. A. Smith, A. C. Simmonett,
    A. E. DePrince III, E. G. Hohenstein, U. Bozkaya, A. Yu. Sokolov,
    R. Di Remigio, R. M. Richard, J. F. Gonthier, A. M. James,
    H. R. McAlexander, A. Kumar, M. Saitow, X. Wang, B. P. Pritchard,
    P. Verma, H. F. Schaefer III, K. Patkowski, R. A. King, E. F. Valeev,
    F. A. Evangelista, J. M. Turney, T. D. Crawford, and C. D. Sherrill,
    J. Chem. Theory Comput. 13(7) pp 3185--3197 (2017).
    (doi: 10.1021/acs.jctc.7b00174)


                         Additional Contributions by
    P. Kraus, H. Kruse, M. H. Lechner, M. C. Schieber, R. A. Shaw,
    A. Alenaizan, R. Galvelis, Z. L. Glick, S. Lehtola, and J. P. Misiewicz

    -----------------------------------------------------------------------


    Psi4 started on: Thursday, 05 March 2020 01:14PM

    Process ID: 85169
    Host:       trurls-machine
    PSIDATADIR: /Users/teague/anaconda3/envs/gen_env/share/psi4
    Memory:     500.0 MiB
    Threads:    1
    
  ==> Input File <==

--------------------------------------------------------------------------
"""This is a template for psi4 input format."""
import numpy
import sys

from openfermion.config import *
from openfermion.hamiltonians import MolecularData
from openfermion.ops import general_basis_change

from numpy import array

sys.path.append('/Users/teague/.local/lib/python3.7/site-packages/openfermionpsi4')
from _psi4_conversion_functions import *


# Set memory that job can use in megabytes.
memory 8000 mb

# Initialize molecular data.
_description = 'NIST'
if _description == 'None':
    _description = None
molecule = MolecularData([('H', (1.5383, 0.3706, -0.0002)), ('C', (0.5962, 0.8744, 0.3346)), ('H', (0.003, -0.0138, 0.6699))],
                         'sto-3g',
                         3,
                         0,
                         _description,
                          filename='molecule_data/methylene_sto-3g_triplet_NIST')

# Set molecular geometry and symmetry.
molecule mol {
H 1.5383 0.3706 -0.0002
C 0.5962 0.8744 0.3346
H 0.003 -0.0138 0.6699
symmetry c1
}
mol.set_multiplicity(3)
mol.set_molecular_charge(0)

# Set reference and guess.
if molecule.multiplicity == 1:
    set reference rhf
    set guess sad
else:
    set reference rohf
    set guess gwh

# Set global parameters of calculation.
set globals {
    basis sto-3g
    freeze_core false
    fail_on_maxiter True
    df_scf_guess false
    opdm true
    tpdm true
    soscf false
    scf_type pk
    maxiter 1e6
    num_amps_print 1e6
    r_convergence 1e-6
    d_convergence 1e-6
    e_convergence 1e-6
    ints_tolerance EQUALITY_TOLERANCE
    damping_percentage 0
}

# Run self-consistent field (SCF) calculation.
if True:
    try:
        hf_energy, hf_wavefunction = energy('scf', return_wfn=True)
        if False:
            print('Hartree-Fock energy for {} ({} electrons) is {}.'.format(
                molecule.name, molecule.n_electrons, hf_energy))
    except:
        if False:
            print('WARNING: SCF calculation failed.')
        else:
            raise
    finally:
        # Get orbitals and Fock matrix.
        molecule.hf_energy = hf_energy
        molecule.nuclear_repulsion = mol.nuclear_repulsion_energy()
        molecule.canonical_orbitals = numpy.asarray(hf_wavefunction.Ca())
        molecule.overlap_integrals = numpy.asarray(hf_wavefunction.S())
        molecule.n_orbitals = molecule.canonical_orbitals.shape[0]
        molecule.n_qubits = 2 * molecule.n_orbitals
        molecule.orbital_energies = numpy.asarray(hf_wavefunction.epsilon_a())
        molecule.fock_matrix = numpy.asarray(hf_wavefunction.Fa())

        # Get integrals using MintsHelper.
        mints = MintsHelper(hf_wavefunction.basisset())
        molecule.one_body_integrals = general_basis_change(
            numpy.asarray(mints.ao_kinetic()), molecule.canonical_orbitals, (1, 0))
        molecule.one_body_integrals += general_basis_change(
            numpy.asarray(mints.ao_potential()), molecule.canonical_orbitals, (1, 0))
        two_body_integrals = numpy.asarray(mints.ao_eri())
        two_body_integrals.reshape((molecule.n_orbitals, molecule.n_orbitals,
                                    molecule.n_orbitals, molecule.n_orbitals))
        two_body_integrals = numpy.einsum('psqr', two_body_integrals)
        two_body_integrals = general_basis_change(
            two_body_integrals, molecule.canonical_orbitals, (1, 1, 0, 0))
        molecule.two_body_integrals = two_body_integrals
        molecule.save()


# Perform MP2 energy calculation if there are at least two electrons.
if True:
    try:
        assert molecule.n_electrons > 1
        mp2_energy = energy('mp2')
        if False:
            print('MP2 energy for {} ({} electrons) is {}.'.format(
                molecule.name, molecule.n_electrons, mp2_energy))
    except:
        if False:
            print('WARNING: MP2 calculation failed.')
        else:
            raise
    else:
        molecule.mp2_energy = mp2_energy
        molecule.save()


# Perform configuration interaction singles and doubles (CISD) calculation.
if True:
    set qc_module detci
    try:
        cisd_energy, cisd_wavefunction = energy('cisd', return_wfn=True)
        if False:
            print('CISD energy for {} ({} electrons) is {}.'.format(
                molecule.name, molecule.n_electrons, cisd_energy))
    except:
        if False:
            print('WARNING: CISD calculation failed.')
        else:
            raise
    else:
        # For the functions below, "a" and "b" refer to "up and "down" spins.
        molecule.cisd_energy = cisd_energy

        # Get 1-RDM from CISD calculation.
        cisd_one_rdm_a = numpy.array(cisd_wavefunction.get_opdm(
            0, 0, 'A', True)).reshape(molecule.n_orbitals, molecule.n_orbitals)
        cisd_one_rdm_b = numpy.array(cisd_wavefunction.get_opdm(
            0, 0, 'B', True)).reshape(molecule.n_orbitals, molecule.n_orbitals)

        # Get 2-RDM from CISD calculation.
        cisd_two_rdm_aa = numpy.array(cisd_wavefunction.get_tpdm(
            'AA', False)).reshape(molecule.n_orbitals, molecule.n_orbitals,
                                  molecule.n_orbitals, molecule.n_orbitals)
        cisd_two_rdm_ab = numpy.array(cisd_wavefunction.get_tpdm(
            'AB', False)).reshape(molecule.n_orbitals, molecule.n_orbitals,
                                  molecule.n_orbitals, molecule.n_orbitals)
        cisd_two_rdm_bb = numpy.array(cisd_wavefunction.get_tpdm(
            'BB', False)).reshape(molecule.n_orbitals, molecule.n_orbitals,
                                  molecule.n_orbitals, molecule.n_orbitals)

        # Get overall RDMs.
        cisd_one_rdm, cisd_two_rdm = unpack_spatial_rdm(
            cisd_one_rdm_a, cisd_one_rdm_b, cisd_two_rdm_aa,
            cisd_two_rdm_ab, cisd_two_rdm_bb)

        # Store 1-RDM in molecule file, 2-RDM separately in other file.
        molecule.cisd_one_rdm = cisd_one_rdm
        molecule.cisd_two_rdm = cisd_two_rdm
        molecule.save()


# Perform exact diagonalization.
if True:
    set qc_module detci
    try:
        fci_energy, fci_wavefunction = energy('fci', return_wfn=True)
        if False:
            print('FCI energy for {} ({} electrons) is {}.'.format(
                molecule.name, molecule.n_electrons, fci_energy))
    except:
        if False:
            print('WARNING: FCI calculation failed.')
        else:
            raise
    finally:
        # For the functions below, "a" and "b" refer to "up and "down" spins.
        molecule.fci_energy = fci_energy

        # Get 1-RDM from FCI calculation.
        fci_one_rdm_a = numpy.array(fci_wavefunction.get_opdm(
            0, 0, 'A', True)).reshape(molecule.n_orbitals, molecule.n_orbitals)
        fci_one_rdm_b = numpy.array(fci_wavefunction.get_opdm(
            0, 0, 'B', True)).reshape(molecule.n_orbitals, molecule.n_orbitals)

        # Get 2-RDM from FCI calculation.
        fci_two_rdm_aa = numpy.array(fci_wavefunction.get_tpdm(
            'AA', False)).reshape(molecule.n_orbitals, molecule.n_orbitals,
                                  molecule.n_orbitals, molecule.n_orbitals)
        fci_two_rdm_ab = numpy.array(fci_wavefunction.get_tpdm(
            'AB', False)).reshape(molecule.n_orbitals, molecule.n_orbitals,
                                  molecule.n_orbitals, molecule.n_orbitals)
        fci_two_rdm_bb = numpy.array(fci_wavefunction.get_tpdm(
            'BB', False)).reshape(molecule.n_orbitals, molecule.n_orbitals,
                                  molecule.n_orbitals, molecule.n_orbitals)

        # Get overall RDMs.
        fci_one_rdm, fci_two_rdm = unpack_spatial_rdm(
            fci_one_rdm_a, fci_one_rdm_b,
            fci_two_rdm_aa, fci_two_rdm_ab, fci_two_rdm_bb)

        # Store 1-RDM in molecule file, 2-RDM separately in other file.
        molecule.fci_one_rdm = fci_one_rdm
        molecule.fci_two_rdm = fci_two_rdm
        molecule.save()


# Perform coupled cluster singles and doubles (CCSD) calculation.
if True:
    set qc_module ccenergy
    try:
        ccsd_energy = energy('ccsd')
        if False:
            print('CCSD energy for {} ({} electrons) is {}.'.format(
                molecule.name, molecule.n_electrons, ccsd_energy))
    except:
        if False:
            print('WARNING: CCSD calculation failed.')
        else:
            raise
    else:
        molecule.ccsd_energy = ccsd_energy

        # Merge CC amplitudes into molecule by parsing
        psi_filename = outfile_name()
        single_cc_amplitudes, double_cc_amplitudes = (
            parse_psi4_ccsd_amplitudes(
                2 * molecule.n_orbitals,
                molecule.get_n_alpha_electrons(),
                molecule.get_n_beta_electrons(),
                psi_filename))

        molecule.ccsd_single_amps = single_cc_amplitudes
        molecule.ccsd_double_amps = double_cc_amplitudes
        molecule.save()
--------------------------------------------------------------------------

  Memory set to   7.451 GiB by Python driver.

*** tstart() called on trurls-machine
*** at Thu Mar  5 13:14:42 2020

   => Loading Basis Set <=

    Name: STO-3G
    Role: ORBITAL
    Keyword: BASIS
    atoms 1, 3 entry H          line    19 file /Users/teague/anaconda3/envs/gen_env/share/psi4/basis/sto-3g.gbs 
    atoms 2    entry C          line    61 file /Users/teague/anaconda3/envs/gen_env/share/psi4/basis/sto-3g.gbs 


         ---------------------------------------------------------
                                   SCF
               by Justin Turney, Rob Parrish, Andy Simmonett
                          and Daniel G. A. Smith
                             ROHF Reference
                        1 Threads,   7629 MiB Core
         ---------------------------------------------------------

  ==> Geometry <==

    Molecular point group: c1
    Full point group: Cs

    Geometry (in Angstrom), charge = 0, multiplicity = 3:

       Center              X                  Y                   Z               Mass       
    ------------   -----------------  -----------------  -----------------  -----------------
         H            0.975468034519    -0.405543431517     0.000000000000     1.007825032230
         C           -0.023194502385     0.100550460350    -0.000000000000    12.000000000000
         H           -0.699295068260    -0.791693673744     0.000000000000     1.007825032230

  Running in c1 symmetry.

  Rotational constants: A =     18.97290  B =     11.32502  C =      7.09186 [cm^-1]
  Rotational constants: A = 568793.09210  B = 339515.70561  C = 212608.51871 [MHz]
  Nuclear repulsion =    5.980057999516349

  Charge       = 0
  Multiplicity = 3
  Electrons    = 8
  Nalpha       = 5
  Nbeta        = 3

  ==> Algorithm <==

  SCF Algorithm Type is PK.
  DIIS enabled.
  MOM disabled.
  Fractional occupation disabled.
  Guess Type is GWH.
  Energy threshold   = 1.00e-06
  Density threshold  = 1.00e-06
  Integral threshold = 0.00e+00

  ==> Primary Basis <==

  Basis Set: STO-3G
    Blend: STO-3G
    Number of shells: 5
    Number of basis function: 7
    Number of Cartesian functions: 7
    Spherical Harmonics?: true
    Max angular momentum: 1

  ==> Pre-Iterations <==

   -------------------------------------------------------
    Irrep   Nso     Nmo     Nalpha   Nbeta   Ndocc  Nsocc
   -------------------------------------------------------
     A          7       7       0       0       0       0
   -------------------------------------------------------
    Total       7       7       5       3       3       2
   -------------------------------------------------------

  ==> Integral Setup <==

  Using in-core PK algorithm.
   Calculation information:
      Number of atoms:                   3
      Number of AO shells:               5
      Number of primitives:             15
      Number of atomic orbitals:         7
      Number of basis functions:         7

      Integral cutoff                 1.00e-12
      Number of threads:                 1

  Performing in-core PK
  Using 812 doubles for integral storage.
  We computed 120 shell quartets total.
  Whereas there are 120 unique shell quartets.

  ==> DiskJK: Disk-Based J/K Matrices <==

    J tasked:                  Yes
    K tasked:                  Yes
    wK tasked:                  No
    Memory [MiB]:             5722
    Schwarz Cutoff:          1E-12

    OpenMP threads:              1

  Minimum eigenvalue in the overlap matrix is 2.8366234421E-01.
  Using Symmetric Orthogonalization.

  SCF Guess: Generalized Wolfsberg-Helmholtz.

  ==> Iterations <==

                        Total Energy        Delta E     RMS |[F,P]|

   @ROHF iter   1:   -38.28218823384663   -3.82822e+01   4.84458e-02 DIIS
   @ROHF iter   2:   -38.41234273853190   -1.30155e-01   5.47550e-03 DIIS
   @ROHF iter   3:   -38.41430164435685   -1.95891e-03   1.14379e-03 DIIS
   @ROHF iter   4:   -38.41443742536254   -1.35781e-04   1.75503e-04 DIIS
   @ROHF iter   5:   -38.41444067211578   -3.24675e-06   1.54099e-06 DIIS
   @ROHF iter   6:   -38.41444067229466   -1.78879e-10   3.11534e-07 DIIS
  Energy and wave function converged.


  ==> Post-Iterations <==

    Orbital Energies [Eh]
    ---------------------

    Doubly Occupied:                                                      

       1A    -10.973156     2A     -0.783309     3A     -0.472946  

    Singly Occupied:                                                      

       4A     -0.110156     5A      0.004122  

    Virtual:                                                              

       6A      0.685806     7A      0.740699  

    Final Occupation by Irrep:
              A 
    DOCC [     3 ]
    SOCC [     2 ]

  @ROHF Final Energy:   -38.41444067229466

   => Energetics <=

    Nuclear Repulsion Energy =              5.9800579995163492
    One-Electron Energy =                 -63.4786980733841162
    Two-Electron Energy =                  19.0841994015731125
    Total Energy =                        -38.4144406722946599

Computation Completed


Properties will be evaluated at   0.000000,   0.000000,   0.000000 [a0]

Properties computed using the SCF density matrix

  Nuclear Dipole Moment: [e a0]
     X:     0.2589      Y:    -1.1224      Z:     0.0000

  Electronic Dipole Moment: [e a0]
     X:    -0.2440      Y:     1.0577      Z:    -0.0000

  Dipole Moment: [e a0]
     X:     0.0149      Y:    -0.0647      Z:    -0.0000     Total:     0.0664

  Dipole Moment: [D]
     X:     0.0379      Y:    -0.1645      Z:    -0.0000     Total:     0.1688


*** tstop() called on trurls-machine at Thu Mar  5 13:14:42 2020
Module time:
	user time   =       0.07 seconds =       0.00 minutes
	system time =       0.01 seconds =       0.00 minutes
	total time  =          0 seconds =       0.00 minutes
Total time:
	user time   =       0.07 seconds =       0.00 minutes
	system time =       0.01 seconds =       0.00 minutes
	total time  =          0 seconds =       0.00 minutes

*** tstart() called on trurls-machine
*** at Thu Mar  5 13:14:42 2020

   => Loading Basis Set <=

    Name: STO-3G
    Role: ORBITAL
    Keyword: BASIS
    atoms 1, 3 entry H          line    19 file /Users/teague/anaconda3/envs/gen_env/share/psi4/basis/sto-3g.gbs 
    atoms 2    entry C          line    61 file /Users/teague/anaconda3/envs/gen_env/share/psi4/basis/sto-3g.gbs 


         ---------------------------------------------------------
                                   SCF
               by Justin Turney, Rob Parrish, Andy Simmonett
                          and Daniel G. A. Smith
                             ROHF Reference
                        1 Threads,   7629 MiB Core
         ---------------------------------------------------------

  ==> Geometry <==

    Molecular point group: c1
    Full point group: Cs

    Geometry (in Angstrom), charge = 0, multiplicity = 3:

       Center              X                  Y                   Z               Mass       
    ------------   -----------------  -----------------  -----------------  -----------------
         H            0.975468034519    -0.405543431517     0.000000000000     1.007825032230
         C           -0.023194502385     0.100550460350    -0.000000000000    12.000000000000
         H           -0.699295068260    -0.791693673744     0.000000000000     1.007825032230

  Running in c1 symmetry.

  Rotational constants: A =     18.97290  B =     11.32502  C =      7.09186 [cm^-1]
  Rotational constants: A = 568793.09210  B = 339515.70561  C = 212608.51871 [MHz]
  Nuclear repulsion =    5.980057999516349

  Charge       = 0
  Multiplicity = 3
  Electrons    = 8
  Nalpha       = 5
  Nbeta        = 3

  ==> Algorithm <==

  SCF Algorithm Type is PK.
  DIIS enabled.
  MOM disabled.
  Fractional occupation disabled.
  Guess Type is GWH.
  Energy threshold   = 1.00e-06
  Density threshold  = 1.00e-06
  Integral threshold = 0.00e+00

  ==> Primary Basis <==

  Basis Set: STO-3G
    Blend: STO-3G
    Number of shells: 5
    Number of basis function: 7
    Number of Cartesian functions: 7
    Spherical Harmonics?: true
    Max angular momentum: 1

  ==> Pre-Iterations <==

   -------------------------------------------------------
    Irrep   Nso     Nmo     Nalpha   Nbeta   Ndocc  Nsocc
   -------------------------------------------------------
     A          7       7       0       0       0       0
   -------------------------------------------------------
    Total       7       7       5       3       3       2
   -------------------------------------------------------

  ==> Integral Setup <==

  Using in-core PK algorithm.
   Calculation information:
      Number of atoms:                   3
      Number of AO shells:               5
      Number of primitives:             15
      Number of atomic orbitals:         7
      Number of basis functions:         7

      Integral cutoff                 1.00e-12
      Number of threads:                 1

  Performing in-core PK
  Using 812 doubles for integral storage.
  We computed 120 shell quartets total.
  Whereas there are 120 unique shell quartets.

  ==> DiskJK: Disk-Based J/K Matrices <==

    J tasked:                  Yes
    K tasked:                  Yes
    wK tasked:                  No
    Memory [MiB]:             5722
    Schwarz Cutoff:          1E-12

    OpenMP threads:              1

  Minimum eigenvalue in the overlap matrix is 2.8366234421E-01.
  Using Symmetric Orthogonalization.

  SCF Guess: Generalized Wolfsberg-Helmholtz.

  ==> Iterations <==

                        Total Energy        Delta E     RMS |[F,P]|

   @ROHF iter   1:   -38.28218823384664   -3.82822e+01   4.84458e-02 DIIS
   @ROHF iter   2:   -38.41234273853195   -1.30155e-01   5.47550e-03 DIIS
   @ROHF iter   3:   -38.41430164435683   -1.95891e-03   1.14379e-03 DIIS
   @ROHF iter   4:   -38.41443742536252   -1.35781e-04   1.75503e-04 DIIS
   @ROHF iter   5:   -38.41444067211577   -3.24675e-06   1.54099e-06 DIIS
   @ROHF iter   6:   -38.41444067229463   -1.78858e-10   3.11534e-07 DIIS
  Energy and wave function converged.


  ==> Post-Iterations <==

    Orbital Energies [Eh]
    ---------------------

    Doubly Occupied:                                                      

       1A    -10.973156     2A     -0.783309     3A     -0.472946  

    Singly Occupied:                                                      

       4A     -0.110156     5A      0.004122  

    Virtual:                                                              

       6A      0.685806     7A      0.740699  

    Final Occupation by Irrep:
              A 
    DOCC [     3 ]
    SOCC [     2 ]

  @ROHF Final Energy:   -38.41444067229463

   => Energetics <=

    Nuclear Repulsion Energy =              5.9800579995163492
    One-Electron Energy =                 -63.4786980733840736
    Two-Electron Energy =                  19.0841994015730947
    Total Energy =                        -38.4144406722946314

Computation Completed


Properties will be evaluated at   0.000000,   0.000000,   0.000000 [a0]

Properties computed using the SCF density matrix

  Nuclear Dipole Moment: [e a0]
     X:     0.2589      Y:    -1.1224      Z:     0.0000

  Electronic Dipole Moment: [e a0]
     X:    -0.2440      Y:     1.0577      Z:    -0.0000

  Dipole Moment: [e a0]
     X:     0.0149      Y:    -0.0647      Z:    -0.0000     Total:     0.0664

  Dipole Moment: [D]
     X:     0.0379      Y:    -0.1645      Z:    -0.0000     Total:     0.1688


*** tstop() called on trurls-machine at Thu Mar  5 13:14:42 2020
Module time:
	user time   =       0.06 seconds =       0.00 minutes
	system time =       0.00 seconds =       0.00 minutes
	total time  =          0 seconds =       0.00 minutes
Total time:
	user time   =       0.16 seconds =       0.00 minutes
	system time =       0.02 seconds =       0.00 minutes
	total time  =          0 seconds =       0.00 minutes

*** tstart() called on trurls-machine
*** at Thu Mar  5 13:14:42 2020


  //>>>>>>>>>>>>>>>>>>>>>>>>>>>>>>>>>>>//
  //               DFMP2               //
  //<<<<<<<<<<<<<<<<<<<<<<<<<<<<<<<<<<<//

   => Loading Basis Set <=

    Name: (STO-3G AUX)
    Role: RIFIT
    Keyword: DF_BASIS_MP2
    atoms 1, 3 entry H          line    24 file /Users/teague/anaconda3/envs/gen_env/share/psi4/basis/def2-qzvpp-ri.gbs 
    atoms 2    entry C          line   270 file /Users/teague/anaconda3/envs/gen_env/share/psi4/basis/def2-qzvpp-ri.gbs 

	 --------------------------------------------------------
	                          DF-MP2                         
	      2nd-Order Density-Fitted Moller-Plesset Theory     
	          ROHF-MBPT(2) Wavefunction,   1 Threads         
	                                                         
	        Rob Parrish, Justin Turney, Andy Simmonett,      
	           Ed Hohenstein, and C. David Sherrill          
	 --------------------------------------------------------

	 --------------------------------------------------------
	                 NBF =     7, NAUX =   253
	 --------------------------------------------------------
	   CLASS    FOCC     OCC    AOCC    AVIR     VIR    FVIR
	   ALPHA       0       5       5       2       2       0
	    BETA       0       3       3       4       4       0
	 --------------------------------------------------------

	-----------------------------------------------------------
	 ==================> DF-MP2 Energies <==================== 
	-----------------------------------------------------------
	 Reference Energy          =     -38.4144406722946314 [Eh]
	 Singles Energy            =      -0.0011741017183703 [Eh]
	 Same-Spin Energy          =      -0.0008641459060418 [Eh]
	 Opposite-Spin Energy      =      -0.0262947542583453 [Eh]
	 Correlation Energy        =      -0.0283330018827574 [Eh]
	 Total Energy              =     -38.4427736741773884 [Eh]
	-----------------------------------------------------------
	 ================> DF-SCS-MP2 Energies <================== 
	-----------------------------------------------------------
	 SCS Same-Spin Scale       =       0.3333333333333333 [-]
	 SCS Opposite-Spin Scale   =       1.2000000000000000 [-]
	 SCS Same-Spin Energy      =      -0.0002880486353473 [Eh]
	 SCS Opposite-Spin Energy  =      -0.0315537051100143 [Eh]
	 SCS Correlation Energy    =      -0.0330158554637319 [Eh]
	 SCS Total Energy          =     -38.4474565277583622 [Eh]
	-----------------------------------------------------------


*** tstop() called on trurls-machine at Thu Mar  5 13:14:42 2020
Module time:
	user time   =       0.09 seconds =       0.00 minutes
	system time =       0.01 seconds =       0.00 minutes
	total time  =          0 seconds =       0.00 minutes
Total time:
	user time   =       0.25 seconds =       0.00 minutes
	system time =       0.03 seconds =       0.00 minutes
	total time  =          0 seconds =       0.00 minutes

*** tstart() called on trurls-machine
*** at Thu Mar  5 13:14:42 2020

   => Loading Basis Set <=

    Name: STO-3G
    Role: ORBITAL
    Keyword: BASIS
    atoms 1, 3 entry H          line    19 file /Users/teague/anaconda3/envs/gen_env/share/psi4/basis/sto-3g.gbs 
    atoms 2    entry C          line    61 file /Users/teague/anaconda3/envs/gen_env/share/psi4/basis/sto-3g.gbs 


         ---------------------------------------------------------
                                   SCF
               by Justin Turney, Rob Parrish, Andy Simmonett
                          and Daniel G. A. Smith
                             ROHF Reference
                        1 Threads,   7629 MiB Core
         ---------------------------------------------------------

  ==> Geometry <==

    Molecular point group: c1
    Full point group: Cs

    Geometry (in Angstrom), charge = 0, multiplicity = 3:

       Center              X                  Y                   Z               Mass       
    ------------   -----------------  -----------------  -----------------  -----------------
         H            0.975468034519    -0.405543431517     0.000000000000     1.007825032230
         C           -0.023194502385     0.100550460350    -0.000000000000    12.000000000000
         H           -0.699295068260    -0.791693673744     0.000000000000     1.007825032230

  Running in c1 symmetry.

  Rotational constants: A =     18.97290  B =     11.32502  C =      7.09186 [cm^-1]
  Rotational constants: A = 568793.09210  B = 339515.70561  C = 212608.51871 [MHz]
  Nuclear repulsion =    5.980057999516349

  Charge       = 0
  Multiplicity = 3
  Electrons    = 8
  Nalpha       = 5
  Nbeta        = 3

  ==> Algorithm <==

  SCF Algorithm Type is PK.
  DIIS enabled.
  MOM disabled.
  Fractional occupation disabled.
  Guess Type is GWH.
  Energy threshold   = 1.00e-06
  Density threshold  = 1.00e-06
  Integral threshold = 0.00e+00

  ==> Primary Basis <==

  Basis Set: STO-3G
    Blend: STO-3G
    Number of shells: 5
    Number of basis function: 7
    Number of Cartesian functions: 7
    Spherical Harmonics?: true
    Max angular momentum: 1

  ==> Pre-Iterations <==

   -------------------------------------------------------
    Irrep   Nso     Nmo     Nalpha   Nbeta   Ndocc  Nsocc
   -------------------------------------------------------
     A          7       7       0       0       0       0
   -------------------------------------------------------
    Total       7       7       5       3       3       2
   -------------------------------------------------------

  ==> Integral Setup <==

  Using in-core PK algorithm.
   Calculation information:
      Number of atoms:                   3
      Number of AO shells:               5
      Number of primitives:             15
      Number of atomic orbitals:         7
      Number of basis functions:         7

      Integral cutoff                 1.00e-12
      Number of threads:                 1

  Performing in-core PK
  Using 812 doubles for integral storage.
  We computed 120 shell quartets total.
  Whereas there are 120 unique shell quartets.

  ==> DiskJK: Disk-Based J/K Matrices <==

    J tasked:                  Yes
    K tasked:                  Yes
    wK tasked:                  No
    Memory [MiB]:             5722
    Schwarz Cutoff:          1E-12

    OpenMP threads:              1

  Minimum eigenvalue in the overlap matrix is 2.8366234421E-01.
  Using Symmetric Orthogonalization.

  SCF Guess: Generalized Wolfsberg-Helmholtz.

  ==> Iterations <==

                        Total Energy        Delta E     RMS |[F,P]|

   @ROHF iter   1:   -38.28218823384664   -3.82822e+01   4.84458e-02 DIIS
   @ROHF iter   2:   -38.41234273853195   -1.30155e-01   5.47550e-03 DIIS
   @ROHF iter   3:   -38.41430164435683   -1.95891e-03   1.14379e-03 DIIS
   @ROHF iter   4:   -38.41443742536252   -1.35781e-04   1.75503e-04 DIIS
   @ROHF iter   5:   -38.41444067211577   -3.24675e-06   1.54099e-06 DIIS
   @ROHF iter   6:   -38.41444067229463   -1.78858e-10   3.11534e-07 DIIS
  Energy and wave function converged.


  ==> Post-Iterations <==

    Orbital Energies [Eh]
    ---------------------

    Doubly Occupied:                                                      

       1A    -10.973156     2A     -0.783309     3A     -0.472946  

    Singly Occupied:                                                      

       4A     -0.110156     5A      0.004122  

    Virtual:                                                              

       6A      0.685806     7A      0.740699  

    Final Occupation by Irrep:
              A 
    DOCC [     3 ]
    SOCC [     2 ]

  @ROHF Final Energy:   -38.41444067229463

   => Energetics <=

    Nuclear Repulsion Energy =              5.9800579995163492
    One-Electron Energy =                 -63.4786980733840736
    Two-Electron Energy =                  19.0841994015730947
    Total Energy =                        -38.4144406722946314

Computation Completed


Properties will be evaluated at   0.000000,   0.000000,   0.000000 [a0]

Properties computed using the SCF density matrix

  Nuclear Dipole Moment: [e a0]
     X:     0.2589      Y:    -1.1224      Z:     0.0000

  Electronic Dipole Moment: [e a0]
     X:    -0.2440      Y:     1.0577      Z:    -0.0000

  Dipole Moment: [e a0]
     X:     0.0149      Y:    -0.0647      Z:    -0.0000     Total:     0.0664

  Dipole Moment: [D]
     X:     0.0379      Y:    -0.1645      Z:    -0.0000     Total:     0.1688


*** tstop() called on trurls-machine at Thu Mar  5 13:14:42 2020
Module time:
	user time   =       0.05 seconds =       0.00 minutes
	system time =       0.01 seconds =       0.00 minutes
	total time  =          0 seconds =       0.00 minutes
Total time:
	user time   =       0.32 seconds =       0.01 minutes
	system time =       0.04 seconds =       0.00 minutes
	total time  =          0 seconds =       0.00 minutes
 MINTS: Wrapper to libmints.
   by Justin Turney

   Calculation information:
      Number of threads:                 1
      Number of atoms:                   3
      Number of AO shells:               5
      Number of SO shells:               5
      Number of primitives:             15
      Number of atomic orbitals:         7
      Number of basis functions:         7

      Number of irreps:                  1
      Integral cutoff                 0.00e+00
      Number of functions per irrep: [   7 ]

 OEINTS: Overlap, kinetic, potential, dipole, and quadrupole integrals
         stored in file 35.

      Computing two-electron integrals...done
      Computed 352 non-zero two-electron integrals.
        Stored in file 33.


         ---------------------------------------------------------
                          Configuration Interaction
                            (a 'D E T C I' module)

                 C. David Sherrill, Daniel G. A. Smith, and
                              Matt L. Leininger
         ---------------------------------------------------------

Warning: iopen=0,opentype!=closed. Making iopen=1

   ==> Parameters <==

    EX LEVEL       =        2      H0 BLOCKSIZE  =     1000
    VAL EX LEVEL   =        0      H0 GUESS SIZE =     1000
    H0COUPLINGSIZE =        0      H0 COUPLING   =       NO
    MAXITER        =       24      NUM PRINT     =       20
    NUM ROOTS      =        1      ICORE         =        1
    PRINT LVL      =        1      FCI           =       NO
    R CONV         = 1.00e-06      MIXED         =      YES
    E CONV         = 1.00e-06      MIXED4        =      YES
    R4S            =       NO      REPL OTF      =       NO
    DIAG METHOD    =      SEM      FOLLOW ROOT   =        0
    PRECONDITIONER = DAVIDSON      UPDATE        = DAVIDSON
    S              =   1.0000      Ms0           =       NO
    GUESS VECTOR   =  H0BLOCK      OPENTYPE      = HIGHSPIN
    COLLAPSE SIZE  =        1      HD AVG        = EVANGELISTI
    MAX NUM VECS   =       25      REF SYM       =     AUTO
    IOPEN        =      YES

    EX ALLOW       =  1  1 
    STATE AVERAGE  =  0(1.00) 

   ==> CI Orbital and Space information <==

    RAS1 LVL      =        4      A RAS3 MAX    =        2
    RAS1 MIN      =        6      B RAS3 MAX    =        2
    A RAS1 LVL    =        4      RAS4 LVL      =        7
    A RAS1 MIN    =        3      A RAS4 MAX    =        0
    A RAS1 MAX    =        5      B RAS4 MAX    =        0
    B RAS1 LVL    =        4      RAS4 MAX      =        0
    B RAS1 MIN    =        1      A RAS34 MAX   =        2
    B RAS1 MAX    =        3      B RAS34 MAX   =        2
    RAS3 LVL      =        5      RAS34 MAX     =        2
    RAS3 MAX      =        2
   ------------------------------------
               Space    Total     A
   ------------------------------------
                 Nso        7     7
                 Nmo        7     7
               Ndocc        3     3
               Nsocc        2     2
   ------------------------------------
              CI Spaces
   ------------------------------------
        Dropped DOCC        0     0
                RAS1        5     5
                RAS2        0     0
                RAS3        2     2
                RAS4        0     0
      Active (total)        7     7
        Dropped UOCC        0     0
   ------------------------------------

   ==> Setting up CI strings <==

    There are 21 alpha and 35 beta strings
    The CI space requires 435 (4.35E+02) determinants and 6 blocks

   ==> Transforming CI integrals <==

	Presorting SO-basis two-electron integrals.
	Sorting File: SO Ints (nn|nn) nbuckets = 1
	Transforming the one-electron integrals and constructing Fock matrices
	Starting first half-transformation.
	Sorting half-transformed integrals.
	First half integral transformation complete.
	Starting second half-transformation.
	Two-electron integral transformation complete.

   ==> Starting CI iterations <==

    H0 Block Eigenvalue = -38.45933049

    Simultaneous Expansion Method (Block Davidson Method)
    Using 1 initial trial vectors

     Iter   Root       Total Energy       Delta E      C RMS

   @CI  0:     0    -38.459330492165   -4.4439E+01   6.8646E-14  
    Warning: Norm of correction (root 0) is < 1.0E-13
   @CI  1:     0    -38.459330492165   0.0000E+00   1.6820E-14 c

   ==> Energetics <==

    SCF energy =          -38.414440672294631
    Total CI energy =     -38.459330492164860

   ==> CISD root 0 information <==

    CISD Root 0 energy =   -38.459330492164860

   The 20 most important determinants:

    *   1   -0.983812  (    0,    0)  1AX 2AX 3AX 4AA 5AA 
    *   2    0.078919  (    3,   10)  1AX 2AX 4AA 5AA 6AX 
    *   3    0.052994  (    6,    5)  1AX 2AA 3AX 4AA 5AB 7AA 
    *   4    0.050755  (    9,   21)  1AX 3AX 4AA 5AA 7AX 
    *   5   -0.044085  (    3,   21)  1AX 2AA 3AB 4AA 5AA 6AA 7AB 
    *   6   -0.042950  (    9,   10)  1AX 2AB 3AA 4AA 5AA 6AB 7AA 
    *   7    0.042805  (    8,   20)  1AX 2AX 4AA 5AA 7AX 
    *   8   -0.041581  (    3,    2)  1AX 2AA 3AB 4AX 5AA 6AA 
    *   9   -0.039304  (    1,    4)  1AX 2AX 3AA 4AA 5AB 6AA 
    *  10   -0.036690  (    4,   20)  1AX 2AB 3AA 4AA 5AA 6AA 7AB 
    *  11    0.035976  (    3,    0)  1AX 2AX 3AB 4AA 5AA 6AA 
    *  12   -0.034341  (    8,   11)  1AX 2AA 3AB 4AA 5AA 6AB 7AA 
    *  13   -0.033017  (    0,   10)  1AX 2AX 3AA 4AA 5AA 6AB 
    *  14    0.029689  (    2,    1)  1AX 2AX 3AA 4AB 5AA 6AA 
    *  15    0.027698  (    8,    1)  1AX 2AX 4AX 5AA 7AA 
    *  16   -0.026976  (    7,   10)  1AX 2AX 3AA 5AA 6AB 7AA 
    *  17   -0.026054  (    4,    1)  1AX 2AB 3AA 4AX 5AA 6AA 
    *  18    0.025618  (    4,   11)  1AX 3AX 4AA 5AA 6AX 
    *  19    0.025586  (    0,   21)  1AX 2AA 3AX 4AA 5AA 7AB 
    *  20    0.025211  (    7,   21)  1AX 2AA 3AX 5AA 7AX 

		 "A good bug is a dead bug" 

			 - Starship Troopers

		 "I didn't write FORTRAN.  That's the problem."

			 - Edward Valeev

*** tstart() called on trurls-machine
*** at Thu Mar  5 13:14:42 2020

   => Loading Basis Set <=

    Name: STO-3G
    Role: ORBITAL
    Keyword: BASIS
    atoms 1, 3 entry H          line    19 file /Users/teague/anaconda3/envs/gen_env/share/psi4/basis/sto-3g.gbs 
    atoms 2    entry C          line    61 file /Users/teague/anaconda3/envs/gen_env/share/psi4/basis/sto-3g.gbs 


         ---------------------------------------------------------
                                   SCF
               by Justin Turney, Rob Parrish, Andy Simmonett
                          and Daniel G. A. Smith
                             ROHF Reference
                        1 Threads,   7629 MiB Core
         ---------------------------------------------------------

  ==> Geometry <==

    Molecular point group: c1
    Full point group: Cs

    Geometry (in Angstrom), charge = 0, multiplicity = 3:

       Center              X                  Y                   Z               Mass       
    ------------   -----------------  -----------------  -----------------  -----------------
         H            0.975468034519    -0.405543431517     0.000000000000     1.007825032230
         C           -0.023194502385     0.100550460350    -0.000000000000    12.000000000000
         H           -0.699295068260    -0.791693673744     0.000000000000     1.007825032230

  Running in c1 symmetry.

  Rotational constants: A =     18.97290  B =     11.32502  C =      7.09186 [cm^-1]
  Rotational constants: A = 568793.09210  B = 339515.70561  C = 212608.51871 [MHz]
  Nuclear repulsion =    5.980057999516349

  Charge       = 0
  Multiplicity = 3
  Electrons    = 8
  Nalpha       = 5
  Nbeta        = 3

  ==> Algorithm <==

  SCF Algorithm Type is PK.
  DIIS enabled.
  MOM disabled.
  Fractional occupation disabled.
  Guess Type is GWH.
  Energy threshold   = 1.00e-06
  Density threshold  = 1.00e-06
  Integral threshold = 0.00e+00

  ==> Primary Basis <==

  Basis Set: STO-3G
    Blend: STO-3G
    Number of shells: 5
    Number of basis function: 7
    Number of Cartesian functions: 7
    Spherical Harmonics?: true
    Max angular momentum: 1

  ==> Pre-Iterations <==

   -------------------------------------------------------
    Irrep   Nso     Nmo     Nalpha   Nbeta   Ndocc  Nsocc
   -------------------------------------------------------
     A          7       7       0       0       0       0
   -------------------------------------------------------
    Total       7       7       5       3       3       2
   -------------------------------------------------------

  ==> Integral Setup <==

  Using in-core PK algorithm.
   Calculation information:
      Number of atoms:                   3
      Number of AO shells:               5
      Number of primitives:             15
      Number of atomic orbitals:         7
      Number of basis functions:         7

      Integral cutoff                 1.00e-12
      Number of threads:                 1

  Performing in-core PK
  Using 812 doubles for integral storage.
  We computed 120 shell quartets total.
  Whereas there are 120 unique shell quartets.

  ==> DiskJK: Disk-Based J/K Matrices <==

    J tasked:                  Yes
    K tasked:                  Yes
    wK tasked:                  No
    Memory [MiB]:             5722
    Schwarz Cutoff:          1E-12

    OpenMP threads:              1

  Minimum eigenvalue in the overlap matrix is 2.8366234421E-01.
  Using Symmetric Orthogonalization.

  SCF Guess: Generalized Wolfsberg-Helmholtz.

  ==> Iterations <==

                        Total Energy        Delta E     RMS |[F,P]|

   @ROHF iter   1:   -38.28218823384664   -3.82822e+01   4.84458e-02 DIIS
   @ROHF iter   2:   -38.41234273853195   -1.30155e-01   5.47550e-03 DIIS
   @ROHF iter   3:   -38.41430164435683   -1.95891e-03   1.14379e-03 DIIS
   @ROHF iter   4:   -38.41443742536252   -1.35781e-04   1.75503e-04 DIIS
   @ROHF iter   5:   -38.41444067211577   -3.24675e-06   1.54099e-06 DIIS
   @ROHF iter   6:   -38.41444067229463   -1.78858e-10   3.11534e-07 DIIS
  Energy and wave function converged.


  ==> Post-Iterations <==

    Orbital Energies [Eh]
    ---------------------

    Doubly Occupied:                                                      

       1A    -10.973156     2A     -0.783309     3A     -0.472946  

    Singly Occupied:                                                      

       4A     -0.110156     5A      0.004122  

    Virtual:                                                              

       6A      0.685806     7A      0.740699  

    Final Occupation by Irrep:
              A 
    DOCC [     3 ]
    SOCC [     2 ]

  @ROHF Final Energy:   -38.41444067229463

   => Energetics <=

    Nuclear Repulsion Energy =              5.9800579995163492
    One-Electron Energy =                 -63.4786980733840736
    Two-Electron Energy =                  19.0841994015730947
    Total Energy =                        -38.4144406722946314

Computation Completed


Properties will be evaluated at   0.000000,   0.000000,   0.000000 [a0]

Properties computed using the SCF density matrix

  Nuclear Dipole Moment: [e a0]
     X:     0.2589      Y:    -1.1224      Z:     0.0000

  Electronic Dipole Moment: [e a0]
     X:    -0.2440      Y:     1.0577      Z:    -0.0000

  Dipole Moment: [e a0]
     X:     0.0149      Y:    -0.0647      Z:    -0.0000     Total:     0.0664

  Dipole Moment: [D]
     X:     0.0379      Y:    -0.1645      Z:    -0.0000     Total:     0.1688


*** tstop() called on trurls-machine at Thu Mar  5 13:14:43 2020
Module time:
	user time   =       0.06 seconds =       0.00 minutes
	system time =       0.01 seconds =       0.00 minutes
	total time  =          1 seconds =       0.02 minutes
Total time:
	user time   =       0.47 seconds =       0.01 minutes
	system time =       0.06 seconds =       0.00 minutes
	total time  =          1 seconds =       0.02 minutes
 MINTS: Wrapper to libmints.
   by Justin Turney

   Calculation information:
      Number of threads:                 1
      Number of atoms:                   3
      Number of AO shells:               5
      Number of SO shells:               5
      Number of primitives:             15
      Number of atomic orbitals:         7
      Number of basis functions:         7

      Number of irreps:                  1
      Integral cutoff                 0.00e+00
      Number of functions per irrep: [   7 ]

 OEINTS: Overlap, kinetic, potential, dipole, and quadrupole integrals
         stored in file 35.

      Computing two-electron integrals...done
      Computed 352 non-zero two-electron integrals.
        Stored in file 33.


         ---------------------------------------------------------
                          Configuration Interaction
                            (a 'D E T C I' module)

                 C. David Sherrill, Daniel G. A. Smith, and
                              Matt L. Leininger
         ---------------------------------------------------------

Warning: iopen=0,opentype!=closed. Making iopen=1

   ==> Parameters <==

    EX LEVEL       =        8      H0 BLOCKSIZE  =     1000
    VAL EX LEVEL   =        0      H0 GUESS SIZE =     1000
    H0COUPLINGSIZE =        0      H0 COUPLING   =       NO
    MAXITER        =       24      NUM PRINT     =       20
    NUM ROOTS      =        1      ICORE         =        1
    PRINT LVL      =        1      FCI           =      YES
    R CONV         = 1.00e-06      MIXED         =      YES
    E CONV         = 1.00e-06      MIXED4        =      YES
    R4S            =       NO      REPL OTF      =       NO
    DIAG METHOD    =      SEM      FOLLOW ROOT   =        0
    PRECONDITIONER = DAVIDSON      UPDATE        = DAVIDSON
    S              =   1.0000      Ms0           =       NO
    GUESS VECTOR   =  H0BLOCK      OPENTYPE      = HIGHSPIN
    COLLAPSE SIZE  =        1      HD AVG        = EVANGELISTI
    MAX NUM VECS   =       25      REF SYM       =     AUTO
    IOPEN        =      YES

    EX ALLOW       =  1  1  1  1  1  1  1  1 
    STATE AVERAGE  =  0(1.00) 

   ==> CI Orbital and Space information <==

   ------------------------------------
               Space    Total     A
   ------------------------------------
                 Nso        7     7
                 Nmo        7     7
               Ndocc        3     3
               Nsocc        2     2
   ------------------------------------
              CI Spaces
   ------------------------------------
        Dropped DOCC        0     0
              Active        7     7
        Dropped UOCC        0     0
   ------------------------------------

   ==> Setting up CI strings <==

    There are 21 alpha and 35 beta strings
    The CI space requires 735 (7.35E+02) determinants and 1 blocks

   ==> Transforming CI integrals <==

	Presorting SO-basis two-electron integrals.
	Sorting File: SO Ints (nn|nn) nbuckets = 1
	Transforming the one-electron integrals and constructing Fock matrices
	Starting first half-transformation.
	Sorting half-transformed integrals.
	First half integral transformation complete.
	Starting second half-transformation.
	Two-electron integral transformation complete.

   ==> Starting CI iterations <==

    H0 Block Eigenvalue = -38.45998559

    Simultaneous Expansion Method (Block Davidson Method)
    Using 1 initial trial vectors

     Iter   Root       Total Energy       Delta E      C RMS

   @CI  0:     0    -38.459985593421   -4.4440E+01   3.3127E-13  
    Warning: Norm of correction (root 0) is < 1.0E-13
   @CI  1:     0    -38.459985593421   0.0000E+00   2.0931E-12 c

   ==> Energetics <==

    SCF energy =          -38.414440672294631
    Total CI energy =     -38.459985593421422

   ==> FCI root 0 information <==

    FCI Root 0 energy =   -38.459985593421422

   The 20 most important determinants:

    *   1    0.983161  (    0,    0)  1AX 2AX 3AX 4AA 5AA 
    *   2   -0.079943  (    3,   10)  1AX 2AX 4AA 5AA 6AX 
    *   3   -0.054015  (    6,    5)  1AX 2AA 3AX 4AA 5AB 7AA 
    *   4   -0.051514  (    9,   21)  1AX 3AX 4AA 5AA 7AX 
    *   5    0.044733  (    3,   21)  1AX 2AA 3AB 4AA 5AA 6AA 7AB 
    *   6    0.043423  (    9,   10)  1AX 2AB 3AA 4AA 5AA 6AB 7AA 
    *   7   -0.043303  (    8,   20)  1AX 2AX 4AA 5AA 7AX 
    *   8    0.042047  (    3,    2)  1AX 2AA 3AB 4AX 5AA 6AA 
    *   9    0.040625  (    1,    4)  1AX 2AX 3AA 4AA 5AB 6AA 
    *  10    0.037218  (    4,   20)  1AX 2AB 3AA 4AA 5AA 6AA 7AB 
    *  11   -0.036818  (    3,    0)  1AX 2AX 3AB 4AA 5AA 6AA 
    *  12    0.034747  (    8,   11)  1AX 2AA 3AB 4AA 5AA 6AB 7AA 
    *  13    0.033967  (    0,   10)  1AX 2AX 3AA 4AA 5AA 6AB 
    *  14   -0.030161  (    2,    1)  1AX 2AX 3AA 4AB 5AA 6AA 
    *  15   -0.027981  (    8,    1)  1AX 2AX 4AX 5AA 7AA 
    *  16    0.027218  (    7,   10)  1AX 2AX 3AA 5AA 6AB 7AA 
    *  17    0.026382  (    4,    1)  1AX 2AB 3AA 4AX 5AA 6AA 
    *  18   -0.026270  (    0,   21)  1AX 2AA 3AX 4AA 5AA 7AB 
    *  19   -0.025801  (    4,   11)  1AX 3AX 4AA 5AA 6AX 
    *  20   -0.025784  (    7,   21)  1AX 2AA 3AX 5AA 7AX 

		 "A good bug is a dead bug" 

			 - Starship Troopers

		 "I didn't write FORTRAN.  That's the problem."

			 - Edward Valeev

*** tstart() called on trurls-machine
*** at Thu Mar  5 13:14:43 2020

   => Loading Basis Set <=

    Name: STO-3G
    Role: ORBITAL
    Keyword: BASIS
    atoms 1, 3 entry H          line    19 file /Users/teague/anaconda3/envs/gen_env/share/psi4/basis/sto-3g.gbs 
    atoms 2    entry C          line    61 file /Users/teague/anaconda3/envs/gen_env/share/psi4/basis/sto-3g.gbs 


         ---------------------------------------------------------
                                   SCF
               by Justin Turney, Rob Parrish, Andy Simmonett
                          and Daniel G. A. Smith
                             ROHF Reference
                        1 Threads,   7629 MiB Core
         ---------------------------------------------------------

  ==> Geometry <==

    Molecular point group: c1
    Full point group: Cs

    Geometry (in Angstrom), charge = 0, multiplicity = 3:

       Center              X                  Y                   Z               Mass       
    ------------   -----------------  -----------------  -----------------  -----------------
         H            0.975468034519    -0.405543431517     0.000000000000     1.007825032230
         C           -0.023194502385     0.100550460350    -0.000000000000    12.000000000000
         H           -0.699295068260    -0.791693673744     0.000000000000     1.007825032230

  Running in c1 symmetry.

  Rotational constants: A =     18.97290  B =     11.32502  C =      7.09186 [cm^-1]
  Rotational constants: A = 568793.09210  B = 339515.70561  C = 212608.51871 [MHz]
  Nuclear repulsion =    5.980057999516349

  Charge       = 0
  Multiplicity = 3
  Electrons    = 8
  Nalpha       = 5
  Nbeta        = 3

  ==> Algorithm <==

  SCF Algorithm Type is PK.
  DIIS enabled.
  MOM disabled.
  Fractional occupation disabled.
  Guess Type is GWH.
  Energy threshold   = 1.00e-06
  Density threshold  = 1.00e-06
  Integral threshold = 0.00e+00

  ==> Primary Basis <==

  Basis Set: STO-3G
    Blend: STO-3G
    Number of shells: 5
    Number of basis function: 7
    Number of Cartesian functions: 7
    Spherical Harmonics?: true
    Max angular momentum: 1

  ==> Pre-Iterations <==

   -------------------------------------------------------
    Irrep   Nso     Nmo     Nalpha   Nbeta   Ndocc  Nsocc
   -------------------------------------------------------
     A          7       7       0       0       0       0
   -------------------------------------------------------
    Total       7       7       5       3       3       2
   -------------------------------------------------------

  ==> Integral Setup <==

  Using in-core PK algorithm.
   Calculation information:
      Number of atoms:                   3
      Number of AO shells:               5
      Number of primitives:             15
      Number of atomic orbitals:         7
      Number of basis functions:         7

      Integral cutoff                 1.00e-12
      Number of threads:                 1

  Performing in-core PK
  Using 812 doubles for integral storage.
  We computed 120 shell quartets total.
  Whereas there are 120 unique shell quartets.

  ==> DiskJK: Disk-Based J/K Matrices <==

    J tasked:                  Yes
    K tasked:                  Yes
    wK tasked:                  No
    Memory [MiB]:             5722
    Schwarz Cutoff:          1E-12

    OpenMP threads:              1

  Minimum eigenvalue in the overlap matrix is 2.8366234421E-01.
  Using Symmetric Orthogonalization.

  SCF Guess: Generalized Wolfsberg-Helmholtz.

  ==> Iterations <==

                        Total Energy        Delta E     RMS |[F,P]|

   @ROHF iter   1:   -38.28218823384664   -3.82822e+01   4.84458e-02 DIIS
   @ROHF iter   2:   -38.41234273853195   -1.30155e-01   5.47550e-03 DIIS
   @ROHF iter   3:   -38.41430164435683   -1.95891e-03   1.14379e-03 DIIS
   @ROHF iter   4:   -38.41443742536252   -1.35781e-04   1.75503e-04 DIIS
   @ROHF iter   5:   -38.41444067211577   -3.24675e-06   1.54099e-06 DIIS
   @ROHF iter   6:   -38.41444067229463   -1.78858e-10   3.11534e-07 DIIS
  Energy and wave function converged.


  ==> Post-Iterations <==

    Orbital Energies [Eh]
    ---------------------

    Doubly Occupied:                                                      

       1A    -10.973156     2A     -0.783309     3A     -0.472946  

    Singly Occupied:                                                      

       4A     -0.110156     5A      0.004122  

    Virtual:                                                              

       6A      0.685806     7A      0.740699  

    Final Occupation by Irrep:
              A 
    DOCC [     3 ]
    SOCC [     2 ]

  @ROHF Final Energy:   -38.41444067229463

   => Energetics <=

    Nuclear Repulsion Energy =              5.9800579995163492
    One-Electron Energy =                 -63.4786980733840736
    Two-Electron Energy =                  19.0841994015730947
    Total Energy =                        -38.4144406722946314

Computation Completed


Properties will be evaluated at   0.000000,   0.000000,   0.000000 [a0]

Properties computed using the SCF density matrix

  Nuclear Dipole Moment: [e a0]
     X:     0.2589      Y:    -1.1224      Z:     0.0000

  Electronic Dipole Moment: [e a0]
     X:    -0.2440      Y:     1.0577      Z:    -0.0000

  Dipole Moment: [e a0]
     X:     0.0149      Y:    -0.0647      Z:    -0.0000     Total:     0.0664

  Dipole Moment: [D]
     X:     0.0379      Y:    -0.1645      Z:    -0.0000     Total:     0.1688


*** tstop() called on trurls-machine at Thu Mar  5 13:14:43 2020
Module time:
	user time   =       0.06 seconds =       0.00 minutes
	system time =       0.01 seconds =       0.00 minutes
	total time  =          0 seconds =       0.00 minutes
Total time:
	user time   =       0.71 seconds =       0.01 minutes
	system time =       0.09 seconds =       0.00 minutes
	total time  =          1 seconds =       0.02 minutes
 MINTS: Wrapper to libmints.
   by Justin Turney

   Calculation information:
      Number of threads:                 1
      Number of atoms:                   3
      Number of AO shells:               5
      Number of SO shells:               5
      Number of primitives:             15
      Number of atomic orbitals:         7
      Number of basis functions:         7

      Number of irreps:                  1
      Integral cutoff                 0.00e+00
      Number of functions per irrep: [   7 ]

 OEINTS: Overlap, kinetic, potential, dipole, and quadrupole integrals
         stored in file 35.

      Computing two-electron integrals...done
      Computed 352 non-zero two-electron integrals.
        Stored in file 33.


*** tstart() called on trurls-machine
*** at Thu Mar  5 13:14:43 2020


	Wfn Parameters:
	--------------------
	Wavefunction         = CCSD
	Number of irreps     = 1
	Number of MOs        = 7
	Number of active MOs = 7
	AO-Basis             = NONE
	Semicanonical        = false
	Reference            = ROHF
	Print Level          = 1

	IRREP	# MOs	# FZDC	# DOCC	# SOCC	# VIRT	# FZVR
	-----	-----	------	------	------	------	------
	 A	   7	    0	    3	    2	    2	    0
	Transforming integrals...
	IWL integrals will be deleted.
	(OO|OO)...
	Presorting SO-basis two-electron integrals.
	Sorting File: SO Ints (nn|nn) nbuckets = 1
	Transforming the one-electron integrals and constructing Fock matrices
	Starting first half-transformation.
	Sorting half-transformed integrals.
	First half integral transformation complete.
	Starting second half-transformation.
	Two-electron integral transformation complete.
	(OO|OV)...
	Starting second half-transformation.
	Two-electron integral transformation complete.
	(OO|VV)...
	Starting second half-transformation.
	Two-electron integral transformation complete.
	(OV|OO)...
	Starting first half-transformation.
	Sorting half-transformed integrals.
	First half integral transformation complete.
	Starting second half-transformation.
	Two-electron integral transformation complete.
	(OV|OV)...
	Starting second half-transformation.
	Two-electron integral transformation complete.
	(OV|VV)...
	Starting second half-transformation.
	Two-electron integral transformation complete.
	(VV|OO)...
	Starting first half-transformation.
	Sorting half-transformed integrals.
	First half integral transformation complete.
	Starting second half-transformation.
	Two-electron integral transformation complete.
	(VV|OV)...
	Starting second half-transformation.
	Two-electron integral transformation complete.
	(VV|VV)...
	Starting second half-transformation.
	Two-electron integral transformation complete.
	Frozen core energy     =      0.00000000000000

	Size of irrep 0 of <ab|cd> integrals:      0.000 (MW) /      0.002 (MB)
	Total:                                     0.000 (MW) /      0.002 (MB)

	Size of irrep 0 of <ia|bc> integrals:      0.000 (MW) /      0.003 (MB)
	Total:                                     0.000 (MW) /      0.003 (MB)

	Size of irrep 0 of tIjAb amplitudes:       0.000 (MW) /      0.003 (MB)
	Total:                                     0.000 (MW) /      0.003 (MB)

	Nuclear Rep. energy          =      5.98005799951635
	SCF energy                   =    -38.41444067229463
	One-electron energy          =    -63.47869856378556
	Two-electron (AA) energy     =      5.55400850925009
	Two-electron (BB) energy     =      1.64523323408124
	Two-electron (AB) energy     =     11.88495814863332
	Two-electron energy          =    -44.39449867182092
	Reference energy             =    -38.41444067230457

*** tstop() called on trurls-machine at Thu Mar  5 13:14:43 2020
Module time:
	user time   =       0.01 seconds =       0.00 minutes
	system time =       0.04 seconds =       0.00 minutes
	total time  =          0 seconds =       0.00 minutes
Total time:
	user time   =       0.72 seconds =       0.01 minutes
	system time =       0.13 seconds =       0.00 minutes
	total time  =          1 seconds =       0.02 minutes
            **************************
            *                        *
            *        CCENERGY        *
            *                        *
            **************************

    Nuclear Rep. energy (wfn)     =    5.980057999516349
    SCF energy          (wfn)     =  -38.414440672294631
    Reference energy    (file100) =  -38.414440672304572

    Input parameters:
    -----------------
    Wave function   =     CCSD
    Reference wfn   =     ROHF
    Brueckner       =     No
    Memory (Mbytes) =     8000.0
    Maxiter         =   1000000
    R_Convergence   =     1.0e-06
    E_Convergence   =     1.0e-06
    Restart         =     Yes
    DIIS            =     Yes
    AO Basis        =     NONE
    ABCD            =     NEW
    Cache Level     =     2
    Cache Type      =     LOW
    Print Level     =     1
    Num. of threads =     1
    # Amps to Print =     1000000
    Print MP2 Amps? =     No
    Analyze T2 Amps =     No
    Print Pair Ener =     No
    Local CC        =     No
    SCS-MP2         =     False
    SCSN-MP2        =     False
    SCS-CCSD        =     False

                Solving CC Amplitude Equations
                ------------------------------
  Iter             Energy              RMS        T1Diag      D1Diag    New D1Diag    D2Diag
  ----     ---------------------    ---------   ----------  ----------  ----------   --------
     0        -0.027964698845133    0.000e+00    0.000125    0.000259    0.000259    0.000000
     1        -0.038141270657335    4.257e-02    0.001103    0.001888    0.002671    0.000000
     2        -0.044897732635022    1.949e-02    0.002558    0.004540    0.006420    0.000000
     3        -0.045218829039113    5.076e-03    0.003324    0.005889    0.008328    0.000000
     4        -0.045375508968699    1.649e-03    0.003552    0.006247    0.008835    0.000000
     5        -0.045330542790734    4.200e-04    0.003547    0.006223    0.008800    0.000000
     6        -0.045363552460964    1.090e-04    0.003549    0.006220    0.008797    0.000000
     7        -0.045357698001066    2.900e-05    0.003547    0.006216    0.008790    0.000000
     8        -0.045357883863075    7.280e-06    0.003548    0.006217    0.008792    0.000000
     9        -0.045358147623088    2.496e-06    0.003548    0.006218    0.008793    0.000000
    10        -0.045358150813527    6.401e-07    0.003548    0.006218    0.008793    0.000000

    Iterations converged.


    Largest TIA Amplitudes:
              2   0        -0.0378107324
              1   1        -0.0230893992
              3   1        -0.0124353830
              0   1         0.0007037088
              2   1         0.0000335161
              1   0        -0.0000222707
              3   0        -0.0000135869
              0   0         0.0000006903

    Largest Tia Amplitudes:
              2   0         0.0342668373
              1   1         0.0268556189
              1   2         0.0057822420
              0   1        -0.0006915666
              2   1        -0.0000301310
              1   0         0.0000271229
              0   2         0.0000058116
              2   2         0.0000054859
              0   0        -0.0000006896

    Largest TIJAB Amplitudes:
      2   1   1   0         0.0089955398
      3   2   1   0        -0.0012461762
      2   0   1   0         0.0008096308
      3   1   1   0        -0.0000004835
      1   0   1   0        -0.0000000435

    Largest Tijab Amplitudes:
      2   1   2   0         0.0128193496
      2   1   1   0         0.0075313738
      2   0   1   0         0.0008479862
      2   0   2   0         0.0004478610
      1   0   2   1         0.0001694180
      2   1   2   1        -0.0000136239
      2   0   2   1        -0.0000004333
      1   0   2   0         0.0000001693
      1   0   1   0        -0.0000000425

    Largest TIjAb Amplitudes:
      2   2   0   0        -0.0798512986
      4   1   1   3         0.0547265169
      1   1   1   1        -0.0516120178
      2   1   0   1        -0.0444533654
      2   2   1   1        -0.0436782902
      1   2   1   0        -0.0432278882
      2   1   0   2        -0.0417601183
      4   2   0   3         0.0415195776
      1   2   0   1        -0.0377865276
      2   1   1   0        -0.0353621498
      3   2   0   2         0.0299217809
      2   2   1   2        -0.0279306321
      3   2   1   0        -0.0270881744
      1   2   0   2        -0.0264175368
      1   1   0   0        -0.0263788419
      3   1   1   1        -0.0256912347
      3   2   0   1        -0.0245279670
      1   1   1   2        -0.0084602251
      3   1   1   2        -0.0050388890
      3   1   0   0         0.0015333204
      4   0   1   3        -0.0014516674
      0   0   1   1        -0.0013686962
      3   0   0   0        -0.0012938291
      1   0   1   2        -0.0012436543
      0   1   1   2        -0.0009639214
      1   0   0   0         0.0008277362
      0   1   0   0         0.0008249523
      0   0   0   0        -0.0007606652
      0   2   0   2         0.0005276641
      2   0   0   1        -0.0004898479
      0   1   1   1         0.0004823812
      0   2   1   0        -0.0004539871
      1   0   1   1         0.0004210706
      0   2   0   1         0.0004138870
      2   0   1   0         0.0003523584
      0   0   1   2        -0.0003315786
      2   0   0   2         0.0001444709
      3   0   1   1         0.0000877085
      1   2   0   0        -0.0000826032
      2   1   0   0        -0.0000812396
      1   2   1   1         0.0000776626
      2   1   1   1         0.0000766838
      3   0   1   2         0.0000579194
      3   2   0   0        -0.0000559238
      4   1   0   3         0.0000552943
      3   2   1   1         0.0000479043
      2   1   1   2         0.0000416905
      2   2   0   2        -0.0000380052
      4   2   1   3        -0.0000338286
      3   2   1   2        -0.0000291522
      3   1   1   0        -0.0000273550
      3   1   0   1        -0.0000267563
      1   2   1   2         0.0000254754
      2   2   1   0         0.0000236934
      2   2   0   1         0.0000232594
      1   1   1   0        -0.0000227897
      1   1   0   1        -0.0000224407
      3   1   0   2        -0.0000064365
      1   1   0   2        -0.0000042014
      4   0   0   3        -0.0000014308
      3   0   1   0         0.0000014199
      3   0   0   1         0.0000014084
      1   0   0   2        -0.0000012700
      0   1   0   2        -0.0000009831
      0   2   1   2        -0.0000005892
      0   0   1   0        -0.0000005752
      0   0   0   1        -0.0000005737
      1   0   1   0        -0.0000003954
      1   0   0   1        -0.0000003520
      0   1   0   1        -0.0000003316
      0   0   0   2        -0.0000003286
      0   1   1   0        -0.0000002913
      2   0   1   2        -0.0000002352
      2   0   1   1         0.0000002148
      0   2   1   1         0.0000001219
      2   0   0   0        -0.0000000836
      3   0   0   2         0.0000000561
      0   2   0   0         0.0000000153

    SCF energy       (wfn)                    =  -38.414440672294631
    Reference energy (file100)                =  -38.414440672304572

    Opposite-spin CCSD correlation energy     =   -0.042248630131403
    Same-spin CCSD correlation energy         =   -0.000716499350712
    CCSD correlation energy                   =   -0.045358150813527
      * CCSD total energy                     =  -38.459798823118099


    Psi4 stopped on: Thursday, 05 March 2020 01:14PM
    Psi4 wall time for execution: 0:00:02.31

*** Psi4 exiting successfully. Buy a developer a beer!
