
    -----------------------------------------------------------------------
          Psi4: An Open-Source Ab Initio Electronic Structure Package
                               Psi4 1.3.2 release

                         Git: Rev {HEAD} ecbda83 


    R. M. Parrish, L. A. Burns, D. G. A. Smith, A. C. Simmonett,
    A. E. DePrince III, E. G. Hohenstein, U. Bozkaya, A. Yu. Sokolov,
    R. Di Remigio, R. M. Richard, J. F. Gonthier, A. M. James,
    H. R. McAlexander, A. Kumar, M. Saitow, X. Wang, B. P. Pritchard,
    P. Verma, H. F. Schaefer III, K. Patkowski, R. A. King, E. F. Valeev,
    F. A. Evangelista, J. M. Turney, T. D. Crawford, and C. D. Sherrill,
    J. Chem. Theory Comput. 13(7) pp 3185--3197 (2017).
    (doi: 10.1021/acs.jctc.7b00174)


                         Additional Contributions by
    P. Kraus, H. Kruse, M. H. Lechner, M. C. Schieber, R. A. Shaw,
    A. Alenaizan, R. Galvelis, Z. L. Glick, S. Lehtola, and J. P. Misiewicz

    -----------------------------------------------------------------------


    Psi4 started on: Wednesday, 04 March 2020 02:27PM

    Process ID: 58922
    Host:       trurls-machine
    PSIDATADIR: /Users/teague/anaconda3/envs/gen_env/share/psi4
    Memory:     500.0 MiB
    Threads:    1
    
  ==> Input File <==

--------------------------------------------------------------------------
"""This is a template for psi4 input format."""
import numpy
import sys

from openfermion.config import *
from openfermion.hamiltonians import MolecularData
from openfermion.ops import general_basis_change

from numpy import array

sys.path.append('/Users/teague/.local/lib/python3.7/site-packages/openfermionpsi4')
from _psi4_conversion_functions import *


# Set memory that job can use in megabytes.
memory 8000 mb

# Initialize molecular data.
_description = 'NIST'
if _description == 'None':
    _description = None
molecule = MolecularData([('C', (1.0582, 0.9352, 0.8103)), ('H', (1.4165, 1.57, -0.0048)), ('H', (1.2073, 1.4482, 1.7644)), ('H', (-0.0062, 0.7282, 0.6702)), ('H', (1.6154, -0.0056, 0.8114))],
                         'sto-3g',
                         1,
                         0,
                         _description,
                          filename='molecule_data/Methane_sto-3g_singlet_NIST')

# Set molecular geometry and symmetry.
molecule mol {
C 1.0582 0.9352 0.8103
H 1.4165 1.57 -0.0048
H 1.2073 1.4482 1.7644
H -0.0062 0.7282 0.6702
H 1.6154 -0.0056 0.8114
symmetry c1
}
mol.set_multiplicity(1)
mol.set_molecular_charge(0)

# Set reference and guess.
if molecule.multiplicity == 1:
    set reference rhf
    set guess sad
else:
    set reference rohf
    set guess gwh

# Set global parameters of calculation.
set globals {
    basis sto-3g
    freeze_core false
    fail_on_maxiter True
    df_scf_guess false
    opdm true
    tpdm true
    soscf false
    scf_type pk
    maxiter 1e6
    num_amps_print 1e6
    r_convergence 1e-6
    d_convergence 1e-6
    e_convergence 1e-6
    ints_tolerance EQUALITY_TOLERANCE
    damping_percentage 0
}

# Run self-consistent field (SCF) calculation.
if True:
    try:
        hf_energy, hf_wavefunction = energy('scf', return_wfn=True)
        if False:
            print('Hartree-Fock energy for {} ({} electrons) is {}.'.format(
                molecule.name, molecule.n_electrons, hf_energy))
    except:
        if False:
            print('WARNING: SCF calculation failed.')
        else:
            raise
    finally:
        # Get orbitals and Fock matrix.
        molecule.hf_energy = hf_energy
        molecule.nuclear_repulsion = mol.nuclear_repulsion_energy()
        molecule.canonical_orbitals = numpy.asarray(hf_wavefunction.Ca())
        molecule.overlap_integrals = numpy.asarray(hf_wavefunction.S())
        molecule.n_orbitals = molecule.canonical_orbitals.shape[0]
        molecule.n_qubits = 2 * molecule.n_orbitals
        molecule.orbital_energies = numpy.asarray(hf_wavefunction.epsilon_a())
        molecule.fock_matrix = numpy.asarray(hf_wavefunction.Fa())

        # Get integrals using MintsHelper.
        mints = MintsHelper(hf_wavefunction.basisset())
        molecule.one_body_integrals = general_basis_change(
            numpy.asarray(mints.ao_kinetic()), molecule.canonical_orbitals, (1, 0))
        molecule.one_body_integrals += general_basis_change(
            numpy.asarray(mints.ao_potential()), molecule.canonical_orbitals, (1, 0))
        two_body_integrals = numpy.asarray(mints.ao_eri())
        two_body_integrals.reshape((molecule.n_orbitals, molecule.n_orbitals,
                                    molecule.n_orbitals, molecule.n_orbitals))
        two_body_integrals = numpy.einsum('psqr', two_body_integrals)
        two_body_integrals = general_basis_change(
            two_body_integrals, molecule.canonical_orbitals, (1, 1, 0, 0))
        molecule.two_body_integrals = two_body_integrals
        molecule.save()


# Perform MP2 energy calculation if there are at least two electrons.
if True:
    try:
        assert molecule.n_electrons > 1
        mp2_energy = energy('mp2')
        if False:
            print('MP2 energy for {} ({} electrons) is {}.'.format(
                molecule.name, molecule.n_electrons, mp2_energy))
    except:
        if False:
            print('WARNING: MP2 calculation failed.')
        else:
            raise
    else:
        molecule.mp2_energy = mp2_energy
        molecule.save()


# Perform configuration interaction singles and doubles (CISD) calculation.
if True:
    set qc_module detci
    try:
        cisd_energy, cisd_wavefunction = energy('cisd', return_wfn=True)
        if False:
            print('CISD energy for {} ({} electrons) is {}.'.format(
                molecule.name, molecule.n_electrons, cisd_energy))
    except:
        if False:
            print('WARNING: CISD calculation failed.')
        else:
            raise
    else:
        # For the functions below, "a" and "b" refer to "up and "down" spins.
        molecule.cisd_energy = cisd_energy

        # Get 1-RDM from CISD calculation.
        cisd_one_rdm_a = numpy.array(cisd_wavefunction.get_opdm(
            0, 0, 'A', True)).reshape(molecule.n_orbitals, molecule.n_orbitals)
        cisd_one_rdm_b = numpy.array(cisd_wavefunction.get_opdm(
            0, 0, 'B', True)).reshape(molecule.n_orbitals, molecule.n_orbitals)

        # Get 2-RDM from CISD calculation.
        cisd_two_rdm_aa = numpy.array(cisd_wavefunction.get_tpdm(
            'AA', False)).reshape(molecule.n_orbitals, molecule.n_orbitals,
                                  molecule.n_orbitals, molecule.n_orbitals)
        cisd_two_rdm_ab = numpy.array(cisd_wavefunction.get_tpdm(
            'AB', False)).reshape(molecule.n_orbitals, molecule.n_orbitals,
                                  molecule.n_orbitals, molecule.n_orbitals)
        cisd_two_rdm_bb = numpy.array(cisd_wavefunction.get_tpdm(
            'BB', False)).reshape(molecule.n_orbitals, molecule.n_orbitals,
                                  molecule.n_orbitals, molecule.n_orbitals)

        # Get overall RDMs.
        cisd_one_rdm, cisd_two_rdm = unpack_spatial_rdm(
            cisd_one_rdm_a, cisd_one_rdm_b, cisd_two_rdm_aa,
            cisd_two_rdm_ab, cisd_two_rdm_bb)

        # Store 1-RDM in molecule file, 2-RDM separately in other file.
        molecule.cisd_one_rdm = cisd_one_rdm
        molecule.cisd_two_rdm = cisd_two_rdm
        molecule.save()


# Perform exact diagonalization.
if True:
    set qc_module detci
    try:
        fci_energy, fci_wavefunction = energy('fci', return_wfn=True)
        if False:
            print('FCI energy for {} ({} electrons) is {}.'.format(
                molecule.name, molecule.n_electrons, fci_energy))
    except:
        if False:
            print('WARNING: FCI calculation failed.')
        else:
            raise
    finally:
        # For the functions below, "a" and "b" refer to "up and "down" spins.
        molecule.fci_energy = fci_energy

        # Get 1-RDM from FCI calculation.
        fci_one_rdm_a = numpy.array(fci_wavefunction.get_opdm(
            0, 0, 'A', True)).reshape(molecule.n_orbitals, molecule.n_orbitals)
        fci_one_rdm_b = numpy.array(fci_wavefunction.get_opdm(
            0, 0, 'B', True)).reshape(molecule.n_orbitals, molecule.n_orbitals)

        # Get 2-RDM from FCI calculation.
        fci_two_rdm_aa = numpy.array(fci_wavefunction.get_tpdm(
            'AA', False)).reshape(molecule.n_orbitals, molecule.n_orbitals,
                                  molecule.n_orbitals, molecule.n_orbitals)
        fci_two_rdm_ab = numpy.array(fci_wavefunction.get_tpdm(
            'AB', False)).reshape(molecule.n_orbitals, molecule.n_orbitals,
                                  molecule.n_orbitals, molecule.n_orbitals)
        fci_two_rdm_bb = numpy.array(fci_wavefunction.get_tpdm(
            'BB', False)).reshape(molecule.n_orbitals, molecule.n_orbitals,
                                  molecule.n_orbitals, molecule.n_orbitals)

        # Get overall RDMs.
        fci_one_rdm, fci_two_rdm = unpack_spatial_rdm(
            fci_one_rdm_a, fci_one_rdm_b,
            fci_two_rdm_aa, fci_two_rdm_ab, fci_two_rdm_bb)

        # Store 1-RDM in molecule file, 2-RDM separately in other file.
        molecule.fci_one_rdm = fci_one_rdm
        molecule.fci_two_rdm = fci_two_rdm
        molecule.save()


# Perform coupled cluster singles and doubles (CCSD) calculation.
if True:
    set qc_module ccenergy
    try:
        ccsd_energy = energy('ccsd')
        if False:
            print('CCSD energy for {} ({} electrons) is {}.'.format(
                molecule.name, molecule.n_electrons, ccsd_energy))
    except:
        if False:
            print('WARNING: CCSD calculation failed.')
        else:
            raise
    else:
        molecule.ccsd_energy = ccsd_energy

        # Merge CC amplitudes into molecule by parsing
        psi_filename = outfile_name()
        single_cc_amplitudes, double_cc_amplitudes = (
            parse_psi4_ccsd_amplitudes(
                2 * molecule.n_orbitals,
                molecule.get_n_alpha_electrons(),
                molecule.get_n_beta_electrons(),
                psi_filename))

        molecule.ccsd_single_amps = single_cc_amplitudes
        molecule.ccsd_double_amps = double_cc_amplitudes
        molecule.save()
--------------------------------------------------------------------------

  Memory set to   7.451 GiB by Python driver.

*** tstart() called on trurls-machine
*** at Wed Mar  4 14:27:02 2020

   => Loading Basis Set <=

    Name: STO-3G
    Role: ORBITAL
    Keyword: BASIS
    atoms 1   entry C          line    61 file /Users/teague/anaconda3/envs/gen_env/share/psi4/basis/sto-3g.gbs 
    atoms 2-5 entry H          line    19 file /Users/teague/anaconda3/envs/gen_env/share/psi4/basis/sto-3g.gbs 


         ---------------------------------------------------------
                                   SCF
               by Justin Turney, Rob Parrish, Andy Simmonett
                          and Daniel G. A. Smith
                              RHF Reference
                        1 Threads,   7629 MiB Core
         ---------------------------------------------------------

  ==> Geometry <==

    Molecular point group: c1
    Full point group: C1

    Geometry (in Angstrom), charge = 0, multiplicity = 1:

       Center              X                  Y                   Z               Mass       
    ------------   -----------------  -----------------  -----------------  -----------------
         C           -0.000012573216     0.000000000000     0.000000000000    12.000000000000
         H            0.358287426784     0.634800000000    -0.815100000000     1.007825032230
         H            0.149087426784     0.513000000000     0.954100000000     1.007825032230
         H           -1.064412573216    -0.207000000000    -0.140100000000     1.007825032230
         H            0.557187426784    -0.940800000000     0.001100000000     1.007825032230

  Running in c1 symmetry.

  Rotational constants: A =      5.24660  B =      5.24624  C =      5.24603 [cm^-1]
  Rotational constants: A = 157289.13874  B = 157278.41775  C = 157272.10302 [MHz]
  Nuclear repulsion =   13.393117620328921

  Charge       = 0
  Multiplicity = 1
  Electrons    = 10
  Nalpha       = 5
  Nbeta        = 5

  ==> Algorithm <==

  SCF Algorithm Type is PK.
  DIIS enabled.
  MOM disabled.
  Fractional occupation disabled.
  Guess Type is SAD.
  Energy threshold   = 1.00e-06
  Density threshold  = 1.00e-06
  Integral threshold = 0.00e+00

  ==> Primary Basis <==

  Basis Set: STO-3G
    Blend: STO-3G
    Number of shells: 7
    Number of basis function: 9
    Number of Cartesian functions: 9
    Spherical Harmonics?: true
    Max angular momentum: 1

  ==> Pre-Iterations <==

   -------------------------------------------------------
    Irrep   Nso     Nmo     Nalpha   Nbeta   Ndocc  Nsocc
   -------------------------------------------------------
     A          9       9       0       0       0       0
   -------------------------------------------------------
    Total       9       9       5       5       5       0
   -------------------------------------------------------

  ==> Integral Setup <==

  Using in-core PK algorithm.
   Calculation information:
      Number of atoms:                   5
      Number of AO shells:               7
      Number of primitives:             21
      Number of atomic orbitals:         9
      Number of basis functions:         9

      Integral cutoff                 1.00e-12
      Number of threads:                 1

  Performing in-core PK
  Using 2070 doubles for integral storage.
  We computed 406 shell quartets total.
  Whereas there are 406 unique shell quartets.

  ==> DiskJK: Disk-Based J/K Matrices <==

    J tasked:                  Yes
    K tasked:                  Yes
    wK tasked:                  No
    Memory [MiB]:             5722
    Schwarz Cutoff:          1E-12

    OpenMP threads:              1

  Minimum eigenvalue in the overlap matrix is 2.2278570314E-01.
  Using Symmetric Orthogonalization.

  SCF Guess: Superposition of Atomic Densities via on-the-fly atomic UHF.

  ==> Iterations <==

                        Total Energy        Delta E     RMS |[F,P]|

   @RHF iter SAD:   -38.43890667749520   -3.84389e+01   0.00000e+00 
   @RHF iter   1:   -39.72529895602420   -1.28639e+00   4.65078e-03 DIIS
   @RHF iter   2:   -39.72643293556311   -1.13398e-03   9.65290e-04 DIIS
   @RHF iter   3:   -39.72649876186721   -6.58263e-05   2.15692e-04 DIIS
   @RHF iter   4:   -39.72650129966382   -2.53780e-06   1.22606e-06 DIIS
   @RHF iter   5:   -39.72650129970361   -3.97833e-11   6.05014e-09 DIIS
  Energy and wave function converged.


  ==> Post-Iterations <==

    Orbital Energies [Eh]
    ---------------------

    Doubly Occupied:                                                      

       1A    -11.030607     2A     -0.906721     3A     -0.516416  
       4A     -0.516381     5A     -0.516374  

    Virtual:                                                              

       6A      0.709940     7A      0.709964     8A      0.710057  
       9A      0.745341  

    Final Occupation by Irrep:
              A 
    DOCC [     5 ]

  @RHF Final Energy:   -39.72650129970361

   => Energetics <=

    Nuclear Repulsion Energy =             13.3931176203289208
    One-Electron Energy =                 -79.2662415290241711
    Two-Electron Energy =                  26.1466226089916418
    Total Energy =                        -39.7265012997036067

Computation Completed


Properties will be evaluated at   0.000000,   0.000000,   0.000000 [a0]

Properties computed using the SCF density matrix

  Nuclear Dipole Moment: [e a0]
     X:     0.0001      Y:     0.0000      Z:    -0.0000

  Electronic Dipole Moment: [e a0]
     X:    -0.0001      Y:    -0.0000      Z:    -0.0000

  Dipole Moment: [e a0]
     X:     0.0000      Y:    -0.0000      Z:    -0.0000     Total:     0.0000

  Dipole Moment: [D]
     X:     0.0000      Y:    -0.0000      Z:    -0.0000     Total:     0.0000


*** tstop() called on trurls-machine at Wed Mar  4 14:27:02 2020
Module time:
	user time   =       0.22 seconds =       0.00 minutes
	system time =       0.01 seconds =       0.00 minutes
	total time  =          0 seconds =       0.00 minutes
Total time:
	user time   =       0.22 seconds =       0.00 minutes
	system time =       0.01 seconds =       0.00 minutes
	total time  =          0 seconds =       0.00 minutes

*** tstart() called on trurls-machine
*** at Wed Mar  4 14:27:02 2020

   => Loading Basis Set <=

    Name: STO-3G
    Role: ORBITAL
    Keyword: BASIS
    atoms 1   entry C          line    61 file /Users/teague/anaconda3/envs/gen_env/share/psi4/basis/sto-3g.gbs 
    atoms 2-5 entry H          line    19 file /Users/teague/anaconda3/envs/gen_env/share/psi4/basis/sto-3g.gbs 


         ---------------------------------------------------------
                                   SCF
               by Justin Turney, Rob Parrish, Andy Simmonett
                          and Daniel G. A. Smith
                              RHF Reference
                        1 Threads,   7629 MiB Core
         ---------------------------------------------------------

  ==> Geometry <==

    Molecular point group: c1
    Full point group: C1

    Geometry (in Angstrom), charge = 0, multiplicity = 1:

       Center              X                  Y                   Z               Mass       
    ------------   -----------------  -----------------  -----------------  -----------------
         C           -0.000012573216    -0.000000000000     0.000000000000    12.000000000000
         H            0.358287426784     0.634800000000    -0.815100000000     1.007825032230
         H            0.149087426784     0.513000000000     0.954100000000     1.007825032230
         H           -1.064412573216    -0.207000000000    -0.140100000000     1.007825032230
         H            0.557187426784    -0.940800000000     0.001100000000     1.007825032230

  Running in c1 symmetry.

  Rotational constants: A =      5.24660  B =      5.24624  C =      5.24603 [cm^-1]
  Rotational constants: A = 157289.13874  B = 157278.41775  C = 157272.10302 [MHz]
  Nuclear repulsion =   13.393117620328921

  Charge       = 0
  Multiplicity = 1
  Electrons    = 10
  Nalpha       = 5
  Nbeta        = 5

  ==> Algorithm <==

  SCF Algorithm Type is PK.
  DIIS enabled.
  MOM disabled.
  Fractional occupation disabled.
  Guess Type is SAD.
  Energy threshold   = 1.00e-06
  Density threshold  = 1.00e-06
  Integral threshold = 0.00e+00

  ==> Primary Basis <==

  Basis Set: STO-3G
    Blend: STO-3G
    Number of shells: 7
    Number of basis function: 9
    Number of Cartesian functions: 9
    Spherical Harmonics?: true
    Max angular momentum: 1

  ==> Pre-Iterations <==

   -------------------------------------------------------
    Irrep   Nso     Nmo     Nalpha   Nbeta   Ndocc  Nsocc
   -------------------------------------------------------
     A          9       9       0       0       0       0
   -------------------------------------------------------
    Total       9       9       5       5       5       0
   -------------------------------------------------------

  ==> Integral Setup <==

  Using in-core PK algorithm.
   Calculation information:
      Number of atoms:                   5
      Number of AO shells:               7
      Number of primitives:             21
      Number of atomic orbitals:         9
      Number of basis functions:         9

      Integral cutoff                 1.00e-12
      Number of threads:                 1

  Performing in-core PK
  Using 2070 doubles for integral storage.
  We computed 406 shell quartets total.
  Whereas there are 406 unique shell quartets.

  ==> DiskJK: Disk-Based J/K Matrices <==

    J tasked:                  Yes
    K tasked:                  Yes
    wK tasked:                  No
    Memory [MiB]:             5722
    Schwarz Cutoff:          1E-12

    OpenMP threads:              1

  Minimum eigenvalue in the overlap matrix is 2.2278570314E-01.
  Using Symmetric Orthogonalization.

  SCF Guess: Superposition of Atomic Densities via on-the-fly atomic UHF.

  ==> Iterations <==

                        Total Energy        Delta E     RMS |[F,P]|

   @RHF iter SAD:   -38.43890667749520   -3.84389e+01   0.00000e+00 
   @RHF iter   1:   -39.72529895602415   -1.28639e+00   4.65078e-03 DIIS
   @RHF iter   2:   -39.72643293556310   -1.13398e-03   9.65290e-04 DIIS
   @RHF iter   3:   -39.72649876186718   -6.58263e-05   2.15692e-04 DIIS
   @RHF iter   4:   -39.72650129966378   -2.53780e-06   1.22606e-06 DIIS
   @RHF iter   5:   -39.72650129970361   -3.98330e-11   6.05014e-09 DIIS
  Energy and wave function converged.


  ==> Post-Iterations <==

    Orbital Energies [Eh]
    ---------------------

    Doubly Occupied:                                                      

       1A    -11.030607     2A     -0.906721     3A     -0.516416  
       4A     -0.516381     5A     -0.516374  

    Virtual:                                                              

       6A      0.709940     7A      0.709964     8A      0.710057  
       9A      0.745341  

    Final Occupation by Irrep:
              A 
    DOCC [     5 ]

  @RHF Final Energy:   -39.72650129970361

   => Energetics <=

    Nuclear Repulsion Energy =             13.3931176203289208
    One-Electron Energy =                 -79.2662415290242848
    Two-Electron Energy =                  26.1466226089917519
    Total Energy =                        -39.7265012997036138

Computation Completed


Properties will be evaluated at   0.000000,   0.000000,   0.000000 [a0]

Properties computed using the SCF density matrix

  Nuclear Dipole Moment: [e a0]
     X:     0.0001      Y:     0.0000      Z:    -0.0000

  Electronic Dipole Moment: [e a0]
     X:    -0.0001      Y:    -0.0000      Z:    -0.0000

  Dipole Moment: [e a0]
     X:     0.0000      Y:    -0.0000      Z:    -0.0000     Total:     0.0000

  Dipole Moment: [D]
     X:     0.0000      Y:    -0.0000      Z:    -0.0000     Total:     0.0000


*** tstop() called on trurls-machine at Wed Mar  4 14:27:02 2020
Module time:
	user time   =       0.21 seconds =       0.00 minutes
	system time =       0.00 seconds =       0.00 minutes
	total time  =          0 seconds =       0.00 minutes
Total time:
	user time   =       0.46 seconds =       0.01 minutes
	system time =       0.02 seconds =       0.00 minutes
	total time  =          0 seconds =       0.00 minutes

*** tstart() called on trurls-machine
*** at Wed Mar  4 14:27:02 2020


  //>>>>>>>>>>>>>>>>>>>>>>>>>>>>>>>>>>>//
  //               DFMP2               //
  //<<<<<<<<<<<<<<<<<<<<<<<<<<<<<<<<<<<//

   => Loading Basis Set <=

    Name: (STO-3G AUX)
    Role: RIFIT
    Keyword: DF_BASIS_MP2
    atoms 1   entry C          line   270 file /Users/teague/anaconda3/envs/gen_env/share/psi4/basis/def2-qzvpp-ri.gbs 
    atoms 2-5 entry H          line    24 file /Users/teague/anaconda3/envs/gen_env/share/psi4/basis/def2-qzvpp-ri.gbs 

	 --------------------------------------------------------
	                          DF-MP2                         
	      2nd-Order Density-Fitted Moller-Plesset Theory     
	              RMP2 Wavefunction,   1 Threads             
	                                                         
	        Rob Parrish, Justin Turney, Andy Simmonett,      
	           Ed Hohenstein, and C. David Sherrill          
	 --------------------------------------------------------

   => Auxiliary Basis Set <=

  Basis Set: (STO-3G AUX)
    Blend: DEF2-QZVPP-RI
    Number of shells: 97
    Number of basis function: 365
    Number of Cartesian functions: 475
    Spherical Harmonics?: true
    Max angular momentum: 5

	 --------------------------------------------------------
	                 NBF =     9, NAUX =   365
	 --------------------------------------------------------
	   CLASS    FOCC     OCC    AOCC    AVIR     VIR    FVIR
	   PAIRS       0       5       5       4       4       0
	 --------------------------------------------------------

	-----------------------------------------------------------
	 ==================> DF-MP2 Energies <==================== 
	-----------------------------------------------------------
	 Reference Energy          =     -39.7265012997036138 [Eh]
	 Singles Energy            =      -0.0000000000000000 [Eh]
	 Same-Spin Energy          =      -0.0030597791369085 [Eh]
	 Opposite-Spin Energy      =      -0.0538606524567683 [Eh]
	 Correlation Energy        =      -0.0569204315936767 [Eh]
	 Total Energy              =     -39.7834217312972882 [Eh]
	-----------------------------------------------------------
	 ================> DF-SCS-MP2 Energies <================== 
	-----------------------------------------------------------
	 SCS Same-Spin Scale       =       0.3333333333333333 [-]
	 SCS Opposite-Spin Scale   =       1.2000000000000000 [-]
	 SCS Same-Spin Energy      =      -0.0010199263789695 [Eh]
	 SCS Opposite-Spin Energy  =      -0.0646327829481219 [Eh]
	 SCS Correlation Energy    =      -0.0656527093270914 [Eh]
	 SCS Total Energy          =     -39.7921540090307033 [Eh]
	-----------------------------------------------------------


*** tstop() called on trurls-machine at Wed Mar  4 14:27:03 2020
Module time:
	user time   =       0.15 seconds =       0.00 minutes
	system time =       0.01 seconds =       0.00 minutes
	total time  =          1 seconds =       0.02 minutes
Total time:
	user time   =       0.61 seconds =       0.01 minutes
	system time =       0.03 seconds =       0.00 minutes
	total time  =          1 seconds =       0.02 minutes

*** tstart() called on trurls-machine
*** at Wed Mar  4 14:27:03 2020

   => Loading Basis Set <=

    Name: STO-3G
    Role: ORBITAL
    Keyword: BASIS
    atoms 1   entry C          line    61 file /Users/teague/anaconda3/envs/gen_env/share/psi4/basis/sto-3g.gbs 
    atoms 2-5 entry H          line    19 file /Users/teague/anaconda3/envs/gen_env/share/psi4/basis/sto-3g.gbs 


         ---------------------------------------------------------
                                   SCF
               by Justin Turney, Rob Parrish, Andy Simmonett
                          and Daniel G. A. Smith
                              RHF Reference
                        1 Threads,   7629 MiB Core
         ---------------------------------------------------------

  ==> Geometry <==

    Molecular point group: c1
    Full point group: C1

    Geometry (in Angstrom), charge = 0, multiplicity = 1:

       Center              X                  Y                   Z               Mass       
    ------------   -----------------  -----------------  -----------------  -----------------
         C           -0.000012573216    -0.000000000000     0.000000000000    12.000000000000
         H            0.358287426784     0.634800000000    -0.815100000000     1.007825032230
         H            0.149087426784     0.513000000000     0.954100000000     1.007825032230
         H           -1.064412573216    -0.207000000000    -0.140100000000     1.007825032230
         H            0.557187426784    -0.940800000000     0.001100000000     1.007825032230

  Running in c1 symmetry.

  Rotational constants: A =      5.24660  B =      5.24624  C =      5.24603 [cm^-1]
  Rotational constants: A = 157289.13874  B = 157278.41775  C = 157272.10302 [MHz]
  Nuclear repulsion =   13.393117620328921

  Charge       = 0
  Multiplicity = 1
  Electrons    = 10
  Nalpha       = 5
  Nbeta        = 5

  ==> Algorithm <==

  SCF Algorithm Type is PK.
  DIIS enabled.
  MOM disabled.
  Fractional occupation disabled.
  Guess Type is SAD.
  Energy threshold   = 1.00e-06
  Density threshold  = 1.00e-06
  Integral threshold = 0.00e+00

  ==> Primary Basis <==

  Basis Set: STO-3G
    Blend: STO-3G
    Number of shells: 7
    Number of basis function: 9
    Number of Cartesian functions: 9
    Spherical Harmonics?: true
    Max angular momentum: 1

  ==> Pre-Iterations <==

   -------------------------------------------------------
    Irrep   Nso     Nmo     Nalpha   Nbeta   Ndocc  Nsocc
   -------------------------------------------------------
     A          9       9       0       0       0       0
   -------------------------------------------------------
    Total       9       9       5       5       5       0
   -------------------------------------------------------

  ==> Integral Setup <==

  Using in-core PK algorithm.
   Calculation information:
      Number of atoms:                   5
      Number of AO shells:               7
      Number of primitives:             21
      Number of atomic orbitals:         9
      Number of basis functions:         9

      Integral cutoff                 1.00e-12
      Number of threads:                 1

  Performing in-core PK
  Using 2070 doubles for integral storage.
  We computed 406 shell quartets total.
  Whereas there are 406 unique shell quartets.

  ==> DiskJK: Disk-Based J/K Matrices <==

    J tasked:                  Yes
    K tasked:                  Yes
    wK tasked:                  No
    Memory [MiB]:             5722
    Schwarz Cutoff:          1E-12

    OpenMP threads:              1

  Minimum eigenvalue in the overlap matrix is 2.2278570314E-01.
  Using Symmetric Orthogonalization.

  SCF Guess: Superposition of Atomic Densities via on-the-fly atomic UHF.

  ==> Iterations <==

                        Total Energy        Delta E     RMS |[F,P]|

   @RHF iter SAD:   -38.43890667749520   -3.84389e+01   0.00000e+00 
   @RHF iter   1:   -39.72529895602422   -1.28639e+00   4.65078e-03 DIIS
   @RHF iter   2:   -39.72643293556314   -1.13398e-03   9.65290e-04 DIIS
   @RHF iter   3:   -39.72649876186721   -6.58263e-05   2.15692e-04 DIIS
   @RHF iter   4:   -39.72650129966382   -2.53780e-06   1.22606e-06 DIIS
   @RHF iter   5:   -39.72650129970361   -3.97975e-11   6.05014e-09 DIIS
  Energy and wave function converged.


  ==> Post-Iterations <==

    Orbital Energies [Eh]
    ---------------------

    Doubly Occupied:                                                      

       1A    -11.030607     2A     -0.906721     3A     -0.516416  
       4A     -0.516381     5A     -0.516374  

    Virtual:                                                              

       6A      0.709940     7A      0.709964     8A      0.710057  
       9A      0.745341  

    Final Occupation by Irrep:
              A 
    DOCC [     5 ]

  @RHF Final Energy:   -39.72650129970361

   => Energetics <=

    Nuclear Repulsion Energy =             13.3931176203289208
    One-Electron Energy =                 -79.2662415290242137
    Two-Electron Energy =                  26.1466226089916773
    Total Energy =                        -39.7265012997036138

Computation Completed


Properties will be evaluated at   0.000000,   0.000000,   0.000000 [a0]

Properties computed using the SCF density matrix

  Nuclear Dipole Moment: [e a0]
     X:     0.0001      Y:     0.0000      Z:    -0.0000

  Electronic Dipole Moment: [e a0]
     X:    -0.0001      Y:    -0.0000      Z:    -0.0000

  Dipole Moment: [e a0]
     X:     0.0000      Y:    -0.0000      Z:    -0.0000     Total:     0.0000

  Dipole Moment: [D]
     X:     0.0000      Y:    -0.0000      Z:    -0.0000     Total:     0.0000


*** tstop() called on trurls-machine at Wed Mar  4 14:27:03 2020
Module time:
	user time   =       0.21 seconds =       0.00 minutes
	system time =       0.01 seconds =       0.00 minutes
	total time  =          0 seconds =       0.00 minutes
Total time:
	user time   =       0.84 seconds =       0.01 minutes
	system time =       0.04 seconds =       0.00 minutes
	total time  =          1 seconds =       0.02 minutes
 MINTS: Wrapper to libmints.
   by Justin Turney

   Calculation information:
      Number of threads:                 1
      Number of atoms:                   5
      Number of AO shells:               7
      Number of SO shells:               7
      Number of primitives:             21
      Number of atomic orbitals:         9
      Number of basis functions:         9

      Number of irreps:                  1
      Integral cutoff                 0.00e+00
      Number of functions per irrep: [   9 ]

 OEINTS: Overlap, kinetic, potential, dipole, and quadrupole integrals
         stored in file 35.

      Computing two-electron integrals...done
      Computed 981 non-zero two-electron integrals.
        Stored in file 33.


         ---------------------------------------------------------
                          Configuration Interaction
                            (a 'D E T C I' module)

                 C. David Sherrill, Daniel G. A. Smith, and
                              Matt L. Leininger
         ---------------------------------------------------------


   ==> Parameters <==

    EX LEVEL       =        2      H0 BLOCKSIZE  =     1000
    VAL EX LEVEL   =        0      H0 GUESS SIZE =     1000
    H0COUPLINGSIZE =        0      H0 COUPLING   =       NO
    MAXITER        =       24      NUM PRINT     =       20
    NUM ROOTS      =        1      ICORE         =        1
    PRINT LVL      =        1      FCI           =       NO
    R CONV         = 1.00e-06      MIXED         =      YES
    E CONV         = 1.00e-06      MIXED4        =      YES
    R4S            =       NO      REPL OTF      =       NO
    DIAG METHOD    =      SEM      FOLLOW ROOT   =        0
    PRECONDITIONER = DAVIDSON      UPDATE        = DAVIDSON
    S              =   0.0000      Ms0           =      YES
    GUESS VECTOR   =  H0BLOCK      OPENTYPE      =     NONE
    COLLAPSE SIZE  =        1      HD AVG        = EVANGELISTI
    MAX NUM VECS   =       25      REF SYM       =     AUTO
    IOPEN        =       NO

    EX ALLOW       =  1  1 
    STATE AVERAGE  =  0(1.00) 

   ==> CI Orbital and Space information <==

    RAS1 LVL      =        4      A RAS3 MAX    =        2
    RAS1 MIN      =        8      B RAS3 MAX    =        2
    A RAS1 LVL    =        4      RAS4 LVL      =        9
    A RAS1 MIN    =        3      A RAS4 MAX    =        0
    A RAS1 MAX    =        5      B RAS4 MAX    =        0
    B RAS1 LVL    =        4      RAS4 MAX      =        0
    B RAS1 MIN    =        3      A RAS34 MAX   =        2
    B RAS1 MAX    =        5      B RAS34 MAX   =        2
    RAS3 LVL      =        5      RAS34 MAX     =        2
    RAS3 MAX      =        2
   ------------------------------------
               Space    Total     A
   ------------------------------------
                 Nso        9     9
                 Nmo        9     9
               Ndocc        5     5
               Nsocc        0     0
   ------------------------------------
              CI Spaces
   ------------------------------------
        Dropped DOCC        0     0
                RAS1        5     5
                RAS2        0     0
                RAS3        4     4
                RAS4        0     0
      Active (total)        9     9
        Dropped UOCC        0     0
   ------------------------------------

   ==> Setting up CI strings <==

    There are 81 alpha and 81 beta strings
    The CI space requires 561 (5.61E+02) determinants and 6 blocks

   ==> Transforming CI integrals <==

	Presorting SO-basis two-electron integrals.
	Sorting File: SO Ints (nn|nn) nbuckets = 1
	Transforming the one-electron integrals and constructing Fock matrices
	Starting first half-transformation.
	Sorting half-transformed integrals.
	First half integral transformation complete.
	Starting second half-transformation.
	Two-electron integral transformation complete.

   ==> Starting CI iterations <==

    H0 Block Eigenvalue = -39.80364298

    Simultaneous Expansion Method (Block Davidson Method)
    Using 1 initial trial vectors

     Iter   Root       Total Energy       Delta E      C RMS

   @CI  0:     0    -39.803642980935   -5.3197E+01   3.2935E-13  
    Warning: Norm of correction (root 0) is < 1.0E-13
   @CI  1:     0    -39.803642980935   7.1054E-15   1.7242E-12 c

   ==> Energetics <==

    SCF energy =          -39.726501299703614
    Total CI energy =     -39.803642980934640

   ==> CISD root 0 information <==

    CISD Root 0 energy =   -39.803642980934640

   The 20 most important determinants:

    *   1   -0.979902  (    0,    0)  1AX 2AX 3AX 4AX 5AX 
    *   2    0.074275  (   13,   13)  1AX 2AX 4AX 5AX 8AX 
    *   3    0.064679  (    1,    1)  1AX 2AX 3AX 4AX 6AX 
    *   4    0.062776  (    7,    7)  1AX 2AX 3AX 5AX 7AX 
    *   5   -0.031664  (   13,   19)  1AX 2AA 3AB 4AX 5AX 8AA 9AB 
    *   6   -0.031664  (   19,   13)  1AX 2AB 3AA 4AX 5AX 8AB 9AA 
    *   7    0.030075  (    7,   19)  1AX 2AA 3AX 4AB 5AX 7AA 9AB 
    *   8    0.030075  (   19,    7)  1AX 2AB 3AX 4AA 5AX 7AB 9AA 
    *   9   -0.030070  (    1,   19)  1AX 2AA 3AX 4AX 5AB 6AA 9AB 
    *  10   -0.030070  (   19,    1)  1AX 2AB 3AX 4AX 5AA 6AB 9AA 
    *  11    0.028470  (   19,   19)  1AX 3AX 4AX 5AX 9AX 
    *  12    0.025061  (   18,   18)  1AX 2AX 4AX 5AX 9AX 
    *  13    0.024994  (   17,   17)  1AX 2AX 3AX 5AX 9AX 
    *  14    0.024976  (   16,   16)  1AX 2AX 3AX 4AX 9AX 
    *  15   -0.024521  (   14,   18)  1AX 2AB 3AA 4AX 5AX 8AA 9AB 
    *  16   -0.024521  (   18,   14)  1AX 2AA 3AB 4AX 5AX 8AB 9AA 
    *  17    0.023289  (    9,   17)  1AX 2AB 3AX 4AA 5AX 7AA 9AB 
    *  18    0.023289  (   17,    9)  1AX 2AA 3AX 4AB 5AX 7AB 9AA 
    *  19   -0.023285  (    4,   16)  1AX 2AB 3AX 4AX 5AA 6AA 9AB 
    *  20   -0.023285  (   16,    4)  1AX 2AA 3AX 4AX 5AB 6AB 9AA 

		 "A good bug is a dead bug" 

			 - Starship Troopers

		 "I didn't write FORTRAN.  That's the problem."

			 - Edward Valeev

*** tstart() called on trurls-machine
*** at Wed Mar  4 14:27:03 2020

   => Loading Basis Set <=

    Name: STO-3G
    Role: ORBITAL
    Keyword: BASIS
    atoms 1   entry C          line    61 file /Users/teague/anaconda3/envs/gen_env/share/psi4/basis/sto-3g.gbs 
    atoms 2-5 entry H          line    19 file /Users/teague/anaconda3/envs/gen_env/share/psi4/basis/sto-3g.gbs 


         ---------------------------------------------------------
                                   SCF
               by Justin Turney, Rob Parrish, Andy Simmonett
                          and Daniel G. A. Smith
                              RHF Reference
                        1 Threads,   7629 MiB Core
         ---------------------------------------------------------

  ==> Geometry <==

    Molecular point group: c1
    Full point group: C1

    Geometry (in Angstrom), charge = 0, multiplicity = 1:

       Center              X                  Y                   Z               Mass       
    ------------   -----------------  -----------------  -----------------  -----------------
         C           -0.000012573216    -0.000000000000     0.000000000000    12.000000000000
         H            0.358287426784     0.634800000000    -0.815100000000     1.007825032230
         H            0.149087426784     0.513000000000     0.954100000000     1.007825032230
         H           -1.064412573216    -0.207000000000    -0.140100000000     1.007825032230
         H            0.557187426784    -0.940800000000     0.001100000000     1.007825032230

  Running in c1 symmetry.

  Rotational constants: A =      5.24660  B =      5.24624  C =      5.24603 [cm^-1]
  Rotational constants: A = 157289.13874  B = 157278.41775  C = 157272.10302 [MHz]
  Nuclear repulsion =   13.393117620328921

  Charge       = 0
  Multiplicity = 1
  Electrons    = 10
  Nalpha       = 5
  Nbeta        = 5

  ==> Algorithm <==

  SCF Algorithm Type is PK.
  DIIS enabled.
  MOM disabled.
  Fractional occupation disabled.
  Guess Type is SAD.
  Energy threshold   = 1.00e-06
  Density threshold  = 1.00e-06
  Integral threshold = 0.00e+00

  ==> Primary Basis <==

  Basis Set: STO-3G
    Blend: STO-3G
    Number of shells: 7
    Number of basis function: 9
    Number of Cartesian functions: 9
    Spherical Harmonics?: true
    Max angular momentum: 1

  ==> Pre-Iterations <==

   -------------------------------------------------------
    Irrep   Nso     Nmo     Nalpha   Nbeta   Ndocc  Nsocc
   -------------------------------------------------------
     A          9       9       0       0       0       0
   -------------------------------------------------------
    Total       9       9       5       5       5       0
   -------------------------------------------------------

  ==> Integral Setup <==

  Using in-core PK algorithm.
   Calculation information:
      Number of atoms:                   5
      Number of AO shells:               7
      Number of primitives:             21
      Number of atomic orbitals:         9
      Number of basis functions:         9

      Integral cutoff                 1.00e-12
      Number of threads:                 1

  Performing in-core PK
  Using 2070 doubles for integral storage.
  We computed 406 shell quartets total.
  Whereas there are 406 unique shell quartets.

  ==> DiskJK: Disk-Based J/K Matrices <==

    J tasked:                  Yes
    K tasked:                  Yes
    wK tasked:                  No
    Memory [MiB]:             5722
    Schwarz Cutoff:          1E-12

    OpenMP threads:              1

  Minimum eigenvalue in the overlap matrix is 2.2278570314E-01.
  Using Symmetric Orthogonalization.

  SCF Guess: Superposition of Atomic Densities via on-the-fly atomic UHF.

  ==> Iterations <==

                        Total Energy        Delta E     RMS |[F,P]|

   @RHF iter SAD:   -38.43890667749520   -3.84389e+01   0.00000e+00 
   @RHF iter   1:   -39.72529895602420   -1.28639e+00   4.65078e-03 DIIS
   @RHF iter   2:   -39.72643293556312   -1.13398e-03   9.65290e-04 DIIS
   @RHF iter   3:   -39.72649876186716   -6.58263e-05   2.15692e-04 DIIS
   @RHF iter   4:   -39.72650129966379   -2.53780e-06   1.22606e-06 DIIS
   @RHF iter   5:   -39.72650129970364   -3.98543e-11   6.05014e-09 DIIS
  Energy and wave function converged.


  ==> Post-Iterations <==

    Orbital Energies [Eh]
    ---------------------

    Doubly Occupied:                                                      

       1A    -11.030607     2A     -0.906721     3A     -0.516416  
       4A     -0.516381     5A     -0.516374  

    Virtual:                                                              

       6A      0.709940     7A      0.709964     8A      0.710057  
       9A      0.745341  

    Final Occupation by Irrep:
              A 
    DOCC [     5 ]

  @RHF Final Energy:   -39.72650129970364

   => Energetics <=

    Nuclear Repulsion Energy =             13.3931176203289208
    One-Electron Energy =                 -79.2662415290242848
    Two-Electron Energy =                  26.1466226089917235
    Total Energy =                        -39.7265012997036422

Computation Completed


Properties will be evaluated at   0.000000,   0.000000,   0.000000 [a0]

Properties computed using the SCF density matrix

  Nuclear Dipole Moment: [e a0]
     X:     0.0001      Y:     0.0000      Z:    -0.0000

  Electronic Dipole Moment: [e a0]
     X:    -0.0001      Y:    -0.0000      Z:    -0.0000

  Dipole Moment: [e a0]
     X:     0.0000      Y:    -0.0000      Z:    -0.0000     Total:     0.0000

  Dipole Moment: [D]
     X:     0.0000      Y:    -0.0000      Z:    -0.0000     Total:     0.0000


*** tstop() called on trurls-machine at Wed Mar  4 14:27:03 2020
Module time:
	user time   =       0.20 seconds =       0.00 minutes
	system time =       0.00 seconds =       0.00 minutes
	total time  =          0 seconds =       0.00 minutes
Total time:
	user time   =       1.20 seconds =       0.02 minutes
	system time =       0.06 seconds =       0.00 minutes
	total time  =          1 seconds =       0.02 minutes
 MINTS: Wrapper to libmints.
   by Justin Turney

   Calculation information:
      Number of threads:                 1
      Number of atoms:                   5
      Number of AO shells:               7
      Number of SO shells:               7
      Number of primitives:             21
      Number of atomic orbitals:         9
      Number of basis functions:         9

      Number of irreps:                  1
      Integral cutoff                 0.00e+00
      Number of functions per irrep: [   9 ]

 OEINTS: Overlap, kinetic, potential, dipole, and quadrupole integrals
         stored in file 35.

      Computing two-electron integrals...done
      Computed 981 non-zero two-electron integrals.
        Stored in file 33.


         ---------------------------------------------------------
                          Configuration Interaction
                            (a 'D E T C I' module)

                 C. David Sherrill, Daniel G. A. Smith, and
                              Matt L. Leininger
         ---------------------------------------------------------


   ==> Parameters <==

    EX LEVEL       =       10      H0 BLOCKSIZE  =     1000
    VAL EX LEVEL   =        0      H0 GUESS SIZE =     1000
    H0COUPLINGSIZE =        0      H0 COUPLING   =       NO
    MAXITER        =       24      NUM PRINT     =       20
    NUM ROOTS      =        1      ICORE         =        1
    PRINT LVL      =        1      FCI           =      YES
    R CONV         = 1.00e-06      MIXED         =      YES
    E CONV         = 1.00e-06      MIXED4        =      YES
    R4S            =       NO      REPL OTF      =       NO
    DIAG METHOD    =      SEM      FOLLOW ROOT   =        0
    PRECONDITIONER = DAVIDSON      UPDATE        = DAVIDSON
    S              =   0.0000      Ms0           =      YES
    GUESS VECTOR   =  H0BLOCK      OPENTYPE      =     NONE
    COLLAPSE SIZE  =        1      HD AVG        = EVANGELISTI
    MAX NUM VECS   =       25      REF SYM       =     AUTO
    IOPEN        =       NO

    EX ALLOW       =  1  1  1  1  1  1  1  1  1  1 
    STATE AVERAGE  =  0(1.00) 

   ==> CI Orbital and Space information <==

   ------------------------------------
               Space    Total     A
   ------------------------------------
                 Nso        9     9
                 Nmo        9     9
               Ndocc        5     5
               Nsocc        0     0
   ------------------------------------
              CI Spaces
   ------------------------------------
        Dropped DOCC        0     0
              Active        9     9
        Dropped UOCC        0     0
   ------------------------------------

   ==> Setting up CI strings <==

    There are 126 alpha and 126 beta strings
    The CI space requires 15876 (1.59E+04) determinants and 1 blocks

   ==> Transforming CI integrals <==

	Presorting SO-basis two-electron integrals.
	Sorting File: SO Ints (nn|nn) nbuckets = 1
	Transforming the one-electron integrals and constructing Fock matrices
	Starting first half-transformation.
	Sorting half-transformed integrals.
	First half integral transformation complete.
	Starting second half-transformation.
	Two-electron integral transformation complete.

   ==> Starting CI iterations <==

    H0 Block Eigenvalue = -39.80333362

    Simultaneous Expansion Method (Block Davidson Method)
    Using 1 initial trial vectors

     Iter   Root       Total Energy       Delta E      C RMS

   @CI  0:     0    -39.803333620000   -5.3196E+01   1.2653E-01  
   @CI  1:     0    -39.806175512706   -2.8419E-03   3.4012E-02  
   @CI  2:     0    -39.806339723774   -1.6421E-04   1.3783E-02  
   @CI  3:     0    -39.806369819144   -3.0095E-05   4.4940E-03  
   @CI  4:     0    -39.806371907019   -2.0879E-06   1.0682E-03  
   @CI  5:     0    -39.806372037417   -1.3040E-07   2.2637E-04  
   @CI  6:     0    -39.806372044522   -7.1051E-09   6.8768E-05  
   @CI  7:     0    -39.806372044937   -4.1543E-10   1.3300E-05  
   @CI  8:     0    -39.806372044953   -1.5781E-11   1.9259E-06  
    Warning: Norm of correction (root 0) is < 1.0E-13
   @CI  9:     0    -39.806372044953   -4.3343E-13   4.5202E-07 c

   ==> Energetics <==

    SCF energy =          -39.726501299703642
    Total CI energy =     -39.806372044953370

   ==> FCI root 0 information <==

    FCI Root 0 energy =   -39.806372044953370

   The 20 most important determinants:

    *   1    0.978089  (    0,    0)  1AX 2AX 3AX 4AX 5AX 
    *   2   -0.076872  (   23,   23)  1AX 2AX 4AX 5AX 8AX 
    *   3   -0.066942  (    1,    1)  1AX 2AX 3AX 4AX 6AX 
    *   4   -0.064979  (    7,    7)  1AX 2AX 3AX 5AX 7AX 
    *   5    0.032733  (   23,   59)  1AX 2AA 3AB 4AX 5AX 8AA 9AB 
    *   6    0.032733  (   59,   23)  1AX 2AB 3AA 4AX 5AX 8AB 9AA 
    *   7   -0.031090  (    7,   59)  1AX 2AA 3AX 4AB 5AX 7AA 9AB 
    *   8   -0.031090  (   59,    7)  1AX 2AB 3AX 4AA 5AX 7AB 9AA 
    *   9    0.031085  (    1,   59)  1AX 2AA 3AX 4AX 5AB 6AA 9AB 
    *  10    0.031085  (   59,    1)  1AX 2AB 3AX 4AX 5AA 6AB 9AA 
    *  11   -0.029153  (   59,   59)  1AX 3AX 4AX 5AX 9AX 
    *  12   -0.025825  (   58,   58)  1AX 2AX 4AX 5AX 9AX 
    *  13   -0.025756  (   57,   57)  1AX 2AX 3AX 5AX 9AX 
    *  14   -0.025737  (   56,   56)  1AX 2AX 3AX 4AX 9AX 
    *  15    0.025344  (   24,   58)  1AX 2AB 3AA 4AX 5AX 8AA 9AB 
    *  16    0.025344  (   58,   24)  1AX 2AA 3AB 4AX 5AX 8AB 9AA 
    *  17   -0.024072  (    9,   57)  1AX 2AB 3AX 4AA 5AX 7AA 9AB 
    *  18   -0.024072  (   57,    9)  1AX 2AA 3AX 4AB 5AX 7AB 9AA 
    *  19    0.024067  (    4,   56)  1AX 2AB 3AX 4AX 5AA 6AA 9AB 
    *  20    0.024067  (   56,    4)  1AX 2AA 3AX 4AX 5AB 6AB 9AA 

		 "A good bug is a dead bug" 

			 - Starship Troopers

		 "I didn't write FORTRAN.  That's the problem."

			 - Edward Valeev

*** tstart() called on trurls-machine
*** at Wed Mar  4 14:27:04 2020

   => Loading Basis Set <=

    Name: STO-3G
    Role: ORBITAL
    Keyword: BASIS
    atoms 1   entry C          line    61 file /Users/teague/anaconda3/envs/gen_env/share/psi4/basis/sto-3g.gbs 
    atoms 2-5 entry H          line    19 file /Users/teague/anaconda3/envs/gen_env/share/psi4/basis/sto-3g.gbs 


         ---------------------------------------------------------
                                   SCF
               by Justin Turney, Rob Parrish, Andy Simmonett
                          and Daniel G. A. Smith
                              RHF Reference
                        1 Threads,   7629 MiB Core
         ---------------------------------------------------------

  ==> Geometry <==

    Molecular point group: c1
    Full point group: C1

    Geometry (in Angstrom), charge = 0, multiplicity = 1:

       Center              X                  Y                   Z               Mass       
    ------------   -----------------  -----------------  -----------------  -----------------
         C           -0.000012573216    -0.000000000000     0.000000000000    12.000000000000
         H            0.358287426784     0.634800000000    -0.815100000000     1.007825032230
         H            0.149087426784     0.513000000000     0.954100000000     1.007825032230
         H           -1.064412573216    -0.207000000000    -0.140100000000     1.007825032230
         H            0.557187426784    -0.940800000000     0.001100000000     1.007825032230

  Running in c1 symmetry.

  Rotational constants: A =      5.24660  B =      5.24624  C =      5.24603 [cm^-1]
  Rotational constants: A = 157289.13874  B = 157278.41775  C = 157272.10302 [MHz]
  Nuclear repulsion =   13.393117620328921

  Charge       = 0
  Multiplicity = 1
  Electrons    = 10
  Nalpha       = 5
  Nbeta        = 5

  ==> Algorithm <==

  SCF Algorithm Type is PK.
  DIIS enabled.
  MOM disabled.
  Fractional occupation disabled.
  Guess Type is SAD.
  Energy threshold   = 1.00e-06
  Density threshold  = 1.00e-06
  Integral threshold = 0.00e+00

  ==> Primary Basis <==

  Basis Set: STO-3G
    Blend: STO-3G
    Number of shells: 7
    Number of basis function: 9
    Number of Cartesian functions: 9
    Spherical Harmonics?: true
    Max angular momentum: 1

  ==> Pre-Iterations <==

   -------------------------------------------------------
    Irrep   Nso     Nmo     Nalpha   Nbeta   Ndocc  Nsocc
   -------------------------------------------------------
     A          9       9       0       0       0       0
   -------------------------------------------------------
    Total       9       9       5       5       5       0
   -------------------------------------------------------

  ==> Integral Setup <==

  Using in-core PK algorithm.
   Calculation information:
      Number of atoms:                   5
      Number of AO shells:               7
      Number of primitives:             21
      Number of atomic orbitals:         9
      Number of basis functions:         9

      Integral cutoff                 1.00e-12
      Number of threads:                 1

  Performing in-core PK
  Using 2070 doubles for integral storage.
  We computed 406 shell quartets total.
  Whereas there are 406 unique shell quartets.

  ==> DiskJK: Disk-Based J/K Matrices <==

    J tasked:                  Yes
    K tasked:                  Yes
    wK tasked:                  No
    Memory [MiB]:             5722
    Schwarz Cutoff:          1E-12

    OpenMP threads:              1

  Minimum eigenvalue in the overlap matrix is 2.2278570314E-01.
  Using Symmetric Orthogonalization.

  SCF Guess: Superposition of Atomic Densities via on-the-fly atomic UHF.

  ==> Iterations <==

                        Total Energy        Delta E     RMS |[F,P]|

   @RHF iter SAD:   -38.43890667749520   -3.84389e+01   0.00000e+00 
   @RHF iter   1:   -39.72529895602421   -1.28639e+00   4.65078e-03 DIIS
   @RHF iter   2:   -39.72643293556311   -1.13398e-03   9.65290e-04 DIIS
   @RHF iter   3:   -39.72649876186720   -6.58263e-05   2.15692e-04 DIIS
   @RHF iter   4:   -39.72650129966382   -2.53780e-06   1.22606e-06 DIIS
   @RHF iter   5:   -39.72650129970361   -3.97975e-11   6.05014e-09 DIIS
  Energy and wave function converged.


  ==> Post-Iterations <==

    Orbital Energies [Eh]
    ---------------------

    Doubly Occupied:                                                      

       1A    -11.030607     2A     -0.906721     3A     -0.516416  
       4A     -0.516381     5A     -0.516374  

    Virtual:                                                              

       6A      0.709940     7A      0.709964     8A      0.710057  
       9A      0.745341  

    Final Occupation by Irrep:
              A 
    DOCC [     5 ]

  @RHF Final Energy:   -39.72650129970361

   => Energetics <=

    Nuclear Repulsion Energy =             13.3931176203289208
    One-Electron Energy =                 -79.2662415290241995
    Two-Electron Energy =                  26.1466226089916596
    Total Energy =                        -39.7265012997036138

Computation Completed


Properties will be evaluated at   0.000000,   0.000000,   0.000000 [a0]

Properties computed using the SCF density matrix

  Nuclear Dipole Moment: [e a0]
     X:     0.0001      Y:     0.0000      Z:    -0.0000

  Electronic Dipole Moment: [e a0]
     X:    -0.0001      Y:    -0.0000      Z:    -0.0000

  Dipole Moment: [e a0]
     X:     0.0000      Y:    -0.0000      Z:    -0.0000     Total:     0.0000

  Dipole Moment: [D]
     X:     0.0000      Y:    -0.0000      Z:    -0.0000     Total:     0.0000


*** tstop() called on trurls-machine at Wed Mar  4 14:27:04 2020
Module time:
	user time   =       0.20 seconds =       0.00 minutes
	system time =       0.01 seconds =       0.00 minutes
	total time  =          0 seconds =       0.00 minutes
Total time:
	user time   =       1.96 seconds =       0.03 minutes
	system time =       0.11 seconds =       0.00 minutes
	total time  =          2 seconds =       0.03 minutes
 MINTS: Wrapper to libmints.
   by Justin Turney

   Calculation information:
      Number of threads:                 1
      Number of atoms:                   5
      Number of AO shells:               7
      Number of SO shells:               7
      Number of primitives:             21
      Number of atomic orbitals:         9
      Number of basis functions:         9

      Number of irreps:                  1
      Integral cutoff                 0.00e+00
      Number of functions per irrep: [   9 ]

 OEINTS: Overlap, kinetic, potential, dipole, and quadrupole integrals
         stored in file 35.

      Computing two-electron integrals...done
      Computed 981 non-zero two-electron integrals.
        Stored in file 33.


*** tstart() called on trurls-machine
*** at Wed Mar  4 14:27:04 2020


	Wfn Parameters:
	--------------------
	Wavefunction         = CCSD
	Number of irreps     = 1
	Number of MOs        = 9
	Number of active MOs = 9
	AO-Basis             = NONE
	Semicanonical        = false
	Reference            = RHF
	Print Level          = 1

	IRREP	# MOs	# FZDC	# DOCC	# SOCC	# VIRT	# FZVR
	-----	-----	------	------	------	------	------
	 A	   9	    0	    5	    0	    4	    0
	Transforming integrals...
	IWL integrals will be deleted.
	(OO|OO)...
	Presorting SO-basis two-electron integrals.
	Sorting File: SO Ints (nn|nn) nbuckets = 1
	Transforming the one-electron integrals and constructing Fock matrices
	Starting first half-transformation.
	Sorting half-transformed integrals.
	First half integral transformation complete.
	Starting second half-transformation.
	Two-electron integral transformation complete.
	(OO|OV)...
	Starting second half-transformation.
	Two-electron integral transformation complete.
	(OO|VV)...
	Starting second half-transformation.
	Two-electron integral transformation complete.
	(OV|OO)...
	Starting first half-transformation.
	Sorting half-transformed integrals.
	First half integral transformation complete.
	Starting second half-transformation.
	Two-electron integral transformation complete.
	(OV|OV)...
	Starting second half-transformation.
	Two-electron integral transformation complete.
	(OV|VV)...
	Starting second half-transformation.
	Two-electron integral transformation complete.
	(VV|OO)...
	Starting first half-transformation.
	Sorting half-transformed integrals.
	First half integral transformation complete.
	Starting second half-transformation.
	Two-electron integral transformation complete.
	(VV|OV)...
	Starting second half-transformation.
	Two-electron integral transformation complete.
	(VV|VV)...
	Starting second half-transformation.
	Two-electron integral transformation complete.
	Frozen core energy     =      0.00000000000000

	Size of irrep 0 of <ab|cd> integrals:      0.000 (MW) /      0.002 (MB)
	Total:                                     0.000 (MW) /      0.002 (MB)

	Size of irrep 0 of <ia|bc> integrals:      0.000 (MW) /      0.003 (MB)
	Total:                                     0.000 (MW) /      0.003 (MB)

	Size of irrep 0 of tijab amplitudes:       0.000 (MW) /      0.003 (MB)
	Total:                                     0.000 (MW) /      0.003 (MB)

	Nuclear Rep. energy          =     13.39311762032892
	SCF energy                   =    -39.72650129970361
	One-electron energy          =    -79.26624136615364
	Two-electron energy          =     26.14662244612109
	Reference energy             =    -39.72650129970362

*** tstop() called on trurls-machine at Wed Mar  4 14:27:04 2020
Module time:
	user time   =       0.00 seconds =       0.00 minutes
	system time =       0.03 seconds =       0.00 minutes
	total time  =          0 seconds =       0.00 minutes
Total time:
	user time   =       1.97 seconds =       0.03 minutes
	system time =       0.14 seconds =       0.00 minutes
	total time  =          2 seconds =       0.03 minutes
            **************************
            *                        *
            *        CCENERGY        *
            *                        *
            **************************

    Nuclear Rep. energy (wfn)     =   13.393117620328921
    SCF energy          (wfn)     =  -39.726501299703614
    Reference energy    (file100) =  -39.726501299703621

    Input parameters:
    -----------------
    Wave function   =     CCSD
    Reference wfn   =     RHF
    Brueckner       =     No
    Memory (Mbytes) =     8000.0
    Maxiter         =   1000000
    R_Convergence   =     1.0e-06
    E_Convergence   =     1.0e-06
    Restart         =     Yes
    DIIS            =     Yes
    AO Basis        =     NONE
    ABCD            =     NEW
    Cache Level     =     2
    Cache Type      =     LOW
    Print Level     =     1
    Num. of threads =     1
    # Amps to Print =     1000000
    Print MP2 Amps? =     No
    Analyze T2 Amps =     No
    Print Pair Ener =     No
    Local CC        =     No
    SCS-MP2         =     False
    SCSN-MP2        =     False
    SCS-CCSD        =     False

MP2 correlation energy -0.0569215447576487
                Solving CC Amplitude Equations
                ------------------------------
  Iter             Energy              RMS        T1Diag      D1Diag    New D1Diag    D2Diag
  ----     ---------------------    ---------   ----------  ----------  ----------   --------
     0        -0.056921544757649    0.000e+00    0.000000    0.000000    0.000000    0.074970
     1        -0.071857054601170    4.334e-02    0.000163    0.000271    0.000271    0.097201
     2        -0.079320882171671    1.580e-02    0.000272    0.000448    0.000448    0.109406
     3        -0.079601925276575    1.887e-03    0.000335    0.000672    0.000672    0.110176
     4        -0.079634358644447    4.963e-04    0.000371    0.000750    0.000750    0.110240
     5        -0.079631006427980    2.585e-05    0.000374    0.000756    0.000756    0.110235
     6        -0.079631741975479    4.531e-06    0.000375    0.000758    0.000758    0.110236
     7        -0.079631742144004    5.647e-07    0.000375    0.000759    0.000759    0.110236

    Iterations converged.


    Largest TIA Amplitudes:
              1   3        -0.0007393312
              2   2         0.0005259055
              4   0         0.0004998077
              3   1         0.0004998022
              0   3        -0.0001696082
              3   0         0.0001651359
              4   1        -0.0001646759
              2   1         0.0000179625
              4   2         0.0000179145
              3   2        -0.0000131304
              2   0        -0.0000129110
              1   1         0.0000011191
              2   3         0.0000009732
              3   3         0.0000009413
              4   3        -0.0000008555
              1   2         0.0000006167
              1   0        -0.0000004785
              0   1         0.0000002128
              0   2         0.0000001885
              0   0        -0.0000000991

    Largest TIjAb Amplitudes:
      2   2   2   2        -0.0784280263
      4   4   0   0        -0.0683422353
      3   3   1   1        -0.0663599615
      1   2   3   2        -0.0332645437
      2   1   2   3        -0.0332645437
      1   3   3   1        -0.0315948698
      3   1   1   3        -0.0315948698
      1   4   3   0        -0.0315897216
      4   1   0   3        -0.0315897216
      1   1   3   3        -0.0301618646
      2   2   3   3        -0.0261969457
      3   3   3   3        -0.0261263052
      4   4   3   3        -0.0261074023
      1   2   2   3        -0.0258262796
      2   1   3   2        -0.0258262796
      1   3   1   3        -0.0245289285
      3   1   3   1        -0.0245289285
      1   4   0   3        -0.0245237026
      4   1   3   0        -0.0245237026
      3   4   1   0        -0.0226427009
      4   3   0   1        -0.0226427009
      3   3   0   0        -0.0223603132
      2   3   2   1        -0.0221430492
      3   2   1   2        -0.0221430492
      4   4   1   1        -0.0213743824
      2   4   2   0        -0.0198946479
      4   2   0   2        -0.0198946479
      3   4   0   1        -0.0193757323
      4   3   1   0        -0.0193757323
      3   3   0   1        -0.0193661921
      3   3   1   0        -0.0193661921
      2   3   1   2        -0.0190403976
      3   2   2   1        -0.0190403976
      2   2   2   3        -0.0183589960
      2   2   3   2        -0.0183589960
      1   1   0   0        -0.0178787909
      1   1   1   1        -0.0178787435
      1   1   2   2        -0.0178782948
      4   4   0   1         0.0175657904
      4   4   1   0         0.0175657904
      2   4   0   2        -0.0167919494
      4   2   2   0        -0.0167919494
      3   4   0   0        -0.0154836009
      4   3   0   0        -0.0154836009
      4   4   0   3        -0.0144106840
      4   4   3   0        -0.0144106840
      3   3   0   3         0.0133570912
      3   3   3   0         0.0133570912
      3   4   1   3         0.0125059896
      4   3   3   1         0.0125059896
      3   4   3   1         0.0125043610
      4   3   1   3         0.0125043610
      3   4   1   1         0.0124449237
      4   3   1   1         0.0124449237
      2   2   1   1        -0.0122014665
      3   3   2   2        -0.0112322864
      3   4   1   2        -0.0110850636
      4   3   2   1        -0.0110850636
      3   4   2   1        -0.0110049803
      4   3   1   2        -0.0110049803
      1   3   3   0        -0.0104345115
      3   1   0   3        -0.0104345115
      1   4   3   1         0.0104125332
      4   1   1   3         0.0104125332
      2   4   0   0         0.0103046871
      4   2   0   0         0.0103046871
      4   4   2   2        -0.0102580845
      2   4   1   1        -0.0097551820
      4   2   1   1        -0.0097551820
      3   3   2   3         0.0092690780
      3   3   3   2         0.0092690780
      2   4   2   1         0.0092640676
      4   2   1   2         0.0092640676
      2   3   1   0        -0.0092433723
      3   2   0   1        -0.0092433723
      2   2   0   0        -0.0092368307
      2   3   0   1        -0.0091322605
      3   2   1   0        -0.0091322605
      4   4   2   3         0.0090740139
      4   4   3   2         0.0090740139
      3   3   0   2        -0.0090504284
      3   3   2   0        -0.0090504284
      2   3   1   3         0.0088450831
      3   2   3   1         0.0088450831
      2   3   3   1         0.0088425850
      3   2   1   3         0.0088425850
      2   4   0   3         0.0084802641
      4   2   3   0         0.0084802641
      2   4   3   0         0.0084778289
      4   2   0   3         0.0084778289
      2   4   1   2         0.0082389396
      4   2   2   1         0.0082389396
      1   3   0   3        -0.0080996671
      3   1   3   0        -0.0080996671
      1   4   1   3         0.0080846985
      4   1   3   1         0.0080846985
      4   4   0   2         0.0072512740
      4   4   2   0         0.0072512740
      1   2   2   2        -0.0052689327
      2   1   2   2        -0.0052689327
      3   3   1   3         0.0048263756
      3   3   3   1         0.0048263756
      2   2   1   2        -0.0047843009
      2   2   2   1        -0.0047843009
      2   3   2   0        -0.0045494151
      3   2   0   2        -0.0045494151
      2   2   1   3        -0.0044497164
      2   2   3   1        -0.0044497164
      1   4   0   0        -0.0042530098
      4   1   0   0        -0.0042530098
      2   4   1   3        -0.0039748106
      4   2   3   1        -0.0039748106
      2   4   3   1        -0.0039741957
      4   2   1   3        -0.0039741957
      1   3   1   0         0.0038757082
      3   1   0   1         0.0038757082
      1   3   0   1         0.0038682103
      3   1   1   0         0.0038682103
      2   3   2   3        -0.0037332858
      3   2   3   2        -0.0037332858
      2   3   3   2        -0.0037302007
      3   2   2   3        -0.0037302007
      2   3   0   2        -0.0035271686
      3   2   2   0        -0.0035271686
      1   4   1   1         0.0034641073
      4   1   1   1         0.0034641073
      4   4   1   2         0.0030433279
      4   4   2   1         0.0030433279
      3   4   2   2         0.0030069935
      4   3   2   2         0.0030069935
      1   2   1   1         0.0028002637
      2   1   1   1         0.0028002637
      1   3   2   1         0.0027313694
      3   1   1   2         0.0027313694
      1   3   1   2         0.0027227802
      3   1   2   1         0.0027227802
      1   2   0   0         0.0025404900
      2   1   0   0         0.0025404900
      1   4   2   0         0.0024026127
      4   1   0   2         0.0024026127
      1   4   0   2         0.0023941361
      4   1   2   0         0.0023941361
      3   4   2   0         0.0022836194
      4   3   0   2         0.0022836194
      3   4   0   2         0.0021713643
      4   3   2   0         0.0021713643
      2   4   2   3         0.0021557740
      4   2   3   2         0.0021557740
      2   4   3   2         0.0021528583
      4   2   2   3         0.0021528583
      2   3   1   1         0.0020777413
      3   2   1   1         0.0020777413
      2   4   1   0        -0.0019491121
      4   2   0   1        -0.0019491121
      0   0   3   3        -0.0019085447
      2   4   0   1        -0.0018682751
      4   2   1   0        -0.0018682751
      2   3   0   3         0.0018186474
      3   2   3   0         0.0018186474
      2   3   3   0         0.0018176187
      3   2   0   3         0.0018176187
      2   2   0   1         0.0018008094
      2   2   1   0         0.0018008094
      2   2   0   2         0.0017989544
      2   2   2   0         0.0017989544
      3   3   1   2         0.0017415519
      3   3   2   1         0.0017415519
      3   4   3   2        -0.0016271238
      4   3   2   3        -0.0016271238
      3   4   2   3        -0.0016270621
      4   3   3   2        -0.0016270621
      1   2   2   1        -0.0013830129
      2   1   1   2        -0.0013830129
      1   2   1   2        -0.0013734326
      2   1   2   1        -0.0013734326
      1   4   2   1        -0.0012753561
      4   1   1   2        -0.0012753561
      1   4   1   2        -0.0012722983
      4   1   2   1        -0.0012722983
      3   4   3   0        -0.0012553404
      4   3   0   3        -0.0012553404
      3   4   0   3        -0.0012512551
      4   3   3   0        -0.0012512551
      2   3   2   2        -0.0011945719
      3   2   2   2        -0.0011945719
      1   3   2   2        -0.0011761730
      3   1   2   2        -0.0011761730
      1   2   3   1        -0.0011373269
      2   1   1   3        -0.0011373269
      1   4   3   2        -0.0011341735
      4   1   2   3        -0.0011341735
      1   4   1   0         0.0011173881
      4   1   0   1         0.0011173881
      1   4   0   1         0.0011093705
      4   1   1   0         0.0011093705
      0   1   0   0         0.0010789945
      1   0   0   0         0.0010789945
      0   1   1   1         0.0010789420
      1   0   1   1         0.0010789420
      0   1   2   2         0.0010789306
      1   0   2   2         0.0010789306
      2   2   0   3         0.0010622164
      2   2   3   0         0.0010622164
      2   3   0   0        -0.0008954025
      3   2   0   0        -0.0008954025
      0   2   2   3         0.0008912085
      2   0   3   2         0.0008912085
      1   2   1   3        -0.0008823149
      2   1   3   1        -0.0008823149
      1   4   2   3        -0.0008811718
      4   1   3   2        -0.0008811718
      1   3   0   0         0.0008666329
      3   1   0   0         0.0008666329
      0   4   0   3         0.0008481089
      4   0   3   0         0.0008481089
      0   3   1   3         0.0008475882
      3   0   3   1         0.0008475882
      1   3   3   2         0.0008283220
      3   1   2   3         0.0008283220
      1   2   3   0         0.0008143984
      2   1   0   3         0.0008143984
      0   0   2   2        -0.0007873613
      0   0   1   1        -0.0007872917
      0   0   0   0        -0.0007872888
      1   4   2   2         0.0007324895
      4   1   2   2         0.0007324895
      0   1   3   3        -0.0006678299
      1   0   3   3        -0.0006678299
      1   3   2   3         0.0006436232
      3   1   3   2         0.0006436232
      1   2   0   3         0.0006318380
      2   1   3   0         0.0006318380
      2   4   2   2        -0.0005331644
      4   2   2   2        -0.0005331644
      0   2   2   2        -0.0004923436
      2   0   2   2        -0.0004923436
      1   3   2   0         0.0004410652
      3   1   0   2         0.0004410652
      1   3   0   2         0.0004383970
      3   1   2   0         0.0004383970
      4   4   1   3        -0.0003953444
      4   4   3   1        -0.0003953444
      0   4   0   0        -0.0003881667
      4   0   0   0        -0.0003881667
      1   3   1   1         0.0003704775
      3   1   1   1         0.0003704775
      1   2   2   0         0.0003698248
      2   1   0   2         0.0003698248
      1   2   0   2         0.0003654116
      2   1   2   0         0.0003654116
      0   3   1   0         0.0003576829
      3   0   0   1         0.0003576829
      0   3   0   1         0.0003565973
      3   0   1   0         0.0003565973
      0   4   1   1         0.0003216186
      4   0   1   1         0.0003216186
      0   3   0   3         0.0002804676
      3   0   3   0         0.0002804676
      0   4   1   3        -0.0002790079
      4   0   3   1        -0.0002790079
      1   2   1   0        -0.0002621070
      2   1   0   1        -0.0002621070
      1   2   0   1        -0.0002620272
      2   1   1   0        -0.0002620272
      0   2   1   1         0.0002575724
      2   0   1   1         0.0002575724
      0   3   2   1         0.0002486023
      3   0   1   2         0.0002486023
      0   3   1   2         0.0002473361
      3   0   2   1         0.0002473361
      0   2   3   2        -0.0002371279
      2   0   2   3        -0.0002371279
      0   2   0   0         0.0002338790
      2   0   0   0         0.0002338790
      0   3   3   1        -0.0002244284
      3   0   1   3        -0.0002244284
      0   4   3   0        -0.0002239063
      4   0   0   3        -0.0002239063
      0   4   2   0         0.0002183221
      4   0   0   2         0.0002183221
      0   4   0   2         0.0002170633
      4   0   2   0         0.0002170633
      0   2   2   1        -0.0001317348
      2   0   1   2        -0.0001317348
      0   2   1   2        -0.0001303389
      2   0   2   1        -0.0001303389
      0   4   2   1        -0.0001165771
      4   0   1   2        -0.0001165771
      0   4   1   2        -0.0001161164
      4   0   2   1        -0.0001161164
      0   3   2   2        -0.0001082623
      3   0   2   2        -0.0001082623
      0   4   1   0         0.0000987884
      4   0   0   1         0.0000987884
      0   4   0   1         0.0000976471
      4   0   1   0         0.0000976471
      0   3   0   0         0.0000808975
      3   0   0   0         0.0000808975
      0   4   3   1         0.0000742063
      4   0   1   3         0.0000742063
      0   3   3   0        -0.0000737173
      3   0   0   3        -0.0000737173
      1   2   3   3        -0.0000689611
      2   1   3   3        -0.0000689611
      0   4   2   2         0.0000673117
      4   0   2   2         0.0000673117
      1   3   3   3        -0.0000585383
      3   1   3   3        -0.0000585383
      1   4   3   3         0.0000541860
      4   1   3   3         0.0000541860
      0   3   2   0         0.0000395920
      3   0   0   2         0.0000395920
      0   3   0   2         0.0000392081
      3   0   2   0         0.0000392081
      0   2   2   0         0.0000361049
      2   0   0   2         0.0000361049
      0   2   0   2         0.0000354700
      2   0   2   0         0.0000354700
      0   2   1   3         0.0000307547
      2   0   3   1         0.0000307547
      0   4   2   3         0.0000301584
      4   0   3   2         0.0000301584
      3   4   3   3         0.0000293452
      4   3   3   3         0.0000293452
      0   3   1   1         0.0000265283
      3   0   1   1         0.0000265283
      0   2   1   0        -0.0000239575
      2   0   0   1        -0.0000239575
      0   2   0   1        -0.0000239441
      2   0   1   0        -0.0000239441
      0   2   0   3        -0.0000220125
      2   0   3   0        -0.0000220125
      0   3   2   3        -0.0000219988
      3   0   3   2        -0.0000219988
      2   4   3   3        -0.0000151732
      4   2   3   3        -0.0000151732
      1   1   1   3         0.0000144501
      1   1   3   1         0.0000144501
      1   1   2   3         0.0000126316
      1   1   3   2         0.0000126316
      2   3   3   3         0.0000116778
      3   2   3   3         0.0000116778
      0   4   3   2        -0.0000082527
      4   0   2   3        -0.0000082527
      0   2   3   1        -0.0000078948
      2   0   1   3        -0.0000078948
      1   1   0   3        -0.0000067061
      1   1   3   0        -0.0000067061
      0   3   3   2         0.0000060517
      3   0   2   3         0.0000060517
      0   2   3   0         0.0000056651
      2   0   0   3         0.0000056651
      0   1   1   3         0.0000023128
      1   0   3   1         0.0000023128
      0   1   3   1         0.0000022720
      1   0   1   3         0.0000022720
      0   1   2   3         0.0000019920
      1   0   3   2         0.0000019920
      0   1   3   2         0.0000019721
      1   0   2   3         0.0000019721
      0   0   1   3         0.0000014105
      0   0   3   1         0.0000014105
      0   0   2   3         0.0000012622
      0   0   3   2         0.0000012622
      0   1   0   3        -0.0000010701
      1   0   3   0        -0.0000010701
      0   1   3   0        -0.0000010530
      1   0   0   3        -0.0000010530
      0   2   3   3         0.0000007746
      2   0   3   3         0.0000007746
      0   3   3   3         0.0000006872
      3   0   3   3         0.0000006872
      0   0   0   3        -0.0000006580
      0   0   3   0        -0.0000006580
      0   4   3   3        -0.0000006323
      4   0   3   3        -0.0000006323
      1   1   1   2        -0.0000000690
      1   1   2   1        -0.0000000690
      1   1   0   1         0.0000000664
      1   1   1   0         0.0000000664
      1   1   0   2        -0.0000000347
      1   1   2   0        -0.0000000347
      0   1   1   0         0.0000000260
      1   0   0   1         0.0000000260
      0   1   0   1         0.0000000260
      1   0   1   0         0.0000000260
      0   1   2   1         0.0000000138
      1   0   1   2         0.0000000138
      0   1   1   2         0.0000000138
      1   0   2   1         0.0000000138
      0   1   2   0        -0.0000000118
      1   0   0   2        -0.0000000118
      0   1   0   2        -0.0000000118
      1   0   2   0        -0.0000000118

    SCF energy       (wfn)                    =  -39.726501299703614
    Reference energy (file100)                =  -39.726501299703621

    Opposite-spin MP2 correlation energy      =   -0.053861764679855
    Same-spin MP2 correlation energy          =   -0.003059780077793
    MP2 correlation energy                    =   -0.056921544757649
      * MP2 total energy                      =  -39.783422844461271

    Opposite-spin CCSD correlation energy     =   -0.077770574629509
    Same-spin CCSD correlation energy         =   -0.001861167514494
    CCSD correlation energy                   =   -0.079631742144004
      * CCSD total energy                     =  -39.806133041847623


    Psi4 stopped on: Wednesday, 04 March 2020 02:27PM
    Psi4 wall time for execution: 0:00:03.40

*** Psi4 exiting successfully. Buy a developer a beer!
