
    -----------------------------------------------------------------------
          Psi4: An Open-Source Ab Initio Electronic Structure Package
                               Psi4 1.3.2 release

                         Git: Rev {HEAD} ecbda83 


    R. M. Parrish, L. A. Burns, D. G. A. Smith, A. C. Simmonett,
    A. E. DePrince III, E. G. Hohenstein, U. Bozkaya, A. Yu. Sokolov,
    R. Di Remigio, R. M. Richard, J. F. Gonthier, A. M. James,
    H. R. McAlexander, A. Kumar, M. Saitow, X. Wang, B. P. Pritchard,
    P. Verma, H. F. Schaefer III, K. Patkowski, R. A. King, E. F. Valeev,
    F. A. Evangelista, J. M. Turney, T. D. Crawford, and C. D. Sherrill,
    J. Chem. Theory Comput. 13(7) pp 3185--3197 (2017).
    (doi: 10.1021/acs.jctc.7b00174)


                         Additional Contributions by
    P. Kraus, H. Kruse, M. H. Lechner, M. C. Schieber, R. A. Shaw,
    A. Alenaizan, R. Galvelis, Z. L. Glick, S. Lehtola, and J. P. Misiewicz

    -----------------------------------------------------------------------


    Psi4 started on: Thursday, 05 March 2020 01:57PM

    Process ID: 15269
    Host:       trurls-machine
    PSIDATADIR: /Users/teague/anaconda3/envs/gen_env/share/psi4
    Memory:     500.0 MiB
    Threads:    1
    
  ==> Input File <==

--------------------------------------------------------------------------
"""This is a template for psi4 input format."""
import numpy
import sys

from openfermion.config import *
from openfermion.hamiltonians import MolecularData
from openfermion.ops import general_basis_change

from numpy import array

sys.path.append('/Users/teague/.local/lib/python3.7/site-packages/openfermionpsi4')
from _psi4_conversion_functions import *


# Set memory that job can use in megabytes.
memory 8000 mb

# Initialize molecular data.
_description = 'NIST'
if _description == 'None':
    _description = None
molecule = MolecularData([('O', (0.8876, 1.4973, 0.0)), ('N', (0.8876, 0.2581, 0.0)), ('O', (-0.1857, -0.3604, 0.0)), ('O', (1.9609, -0.3604, 0.0))],
                         'sto-3g',
                         1,
                         -1,
                         _description,
                          filename='molecule_data/Nitrate_sto-3g_singlet_NIST')

# Set molecular geometry and symmetry.
molecule mol {
O 0.8876 1.4973 0.0
N 0.8876 0.2581 0.0
O -0.1857 -0.3604 0.0
O 1.9609 -0.3604 0.0
symmetry c1
}
mol.set_multiplicity(1)
mol.set_molecular_charge(-1)

# Set reference and guess.
if molecule.multiplicity == 1:
    set reference rhf
    set guess sad
else:
    set reference rohf
    set guess gwh

# Set global parameters of calculation.
set globals {
    basis sto-3g
    freeze_core false
    fail_on_maxiter True
    df_scf_guess false
    opdm true
    tpdm true
    soscf false
    scf_type pk
    maxiter 1e6
    num_amps_print 1e6
    r_convergence 1e-6
    d_convergence 1e-6
    e_convergence 1e-6
    ints_tolerance EQUALITY_TOLERANCE
    damping_percentage 0
}

# Run self-consistent field (SCF) calculation.
if True:
    try:
        hf_energy, hf_wavefunction = energy('scf', return_wfn=True)
        if False:
            print('Hartree-Fock energy for {} ({} electrons) is {}.'.format(
                molecule.name, molecule.n_electrons, hf_energy))
    except:
        if False:
            print('WARNING: SCF calculation failed.')
        else:
            raise
    finally:
        # Get orbitals and Fock matrix.
        molecule.hf_energy = hf_energy
        molecule.nuclear_repulsion = mol.nuclear_repulsion_energy()
        molecule.canonical_orbitals = numpy.asarray(hf_wavefunction.Ca())
        molecule.overlap_integrals = numpy.asarray(hf_wavefunction.S())
        molecule.n_orbitals = molecule.canonical_orbitals.shape[0]
        molecule.n_qubits = 2 * molecule.n_orbitals
        molecule.orbital_energies = numpy.asarray(hf_wavefunction.epsilon_a())
        molecule.fock_matrix = numpy.asarray(hf_wavefunction.Fa())

        # Get integrals using MintsHelper.
        mints = MintsHelper(hf_wavefunction.basisset())
        molecule.one_body_integrals = general_basis_change(
            numpy.asarray(mints.ao_kinetic()), molecule.canonical_orbitals, (1, 0))
        molecule.one_body_integrals += general_basis_change(
            numpy.asarray(mints.ao_potential()), molecule.canonical_orbitals, (1, 0))
        two_body_integrals = numpy.asarray(mints.ao_eri())
        two_body_integrals.reshape((molecule.n_orbitals, molecule.n_orbitals,
                                    molecule.n_orbitals, molecule.n_orbitals))
        two_body_integrals = numpy.einsum('psqr', two_body_integrals)
        two_body_integrals = general_basis_change(
            two_body_integrals, molecule.canonical_orbitals, (1, 1, 0, 0))
        molecule.two_body_integrals = two_body_integrals
        molecule.save()


# Perform MP2 energy calculation if there are at least two electrons.
if True:
    try:
        assert molecule.n_electrons > 1
        mp2_energy = energy('mp2')
        if False:
            print('MP2 energy for {} ({} electrons) is {}.'.format(
                molecule.name, molecule.n_electrons, mp2_energy))
    except:
        if False:
            print('WARNING: MP2 calculation failed.')
        else:
            raise
    else:
        molecule.mp2_energy = mp2_energy
        molecule.save()


# Perform configuration interaction singles and doubles (CISD) calculation.
if True:
    set qc_module detci
    try:
        cisd_energy, cisd_wavefunction = energy('cisd', return_wfn=True)
        if False:
            print('CISD energy for {} ({} electrons) is {}.'.format(
                molecule.name, molecule.n_electrons, cisd_energy))
    except:
        if False:
            print('WARNING: CISD calculation failed.')
        else:
            raise
    else:
        # For the functions below, "a" and "b" refer to "up and "down" spins.
        molecule.cisd_energy = cisd_energy

        # Get 1-RDM from CISD calculation.
        cisd_one_rdm_a = numpy.array(cisd_wavefunction.get_opdm(
            0, 0, 'A', True)).reshape(molecule.n_orbitals, molecule.n_orbitals)
        cisd_one_rdm_b = numpy.array(cisd_wavefunction.get_opdm(
            0, 0, 'B', True)).reshape(molecule.n_orbitals, molecule.n_orbitals)

        # Get 2-RDM from CISD calculation.
        cisd_two_rdm_aa = numpy.array(cisd_wavefunction.get_tpdm(
            'AA', False)).reshape(molecule.n_orbitals, molecule.n_orbitals,
                                  molecule.n_orbitals, molecule.n_orbitals)
        cisd_two_rdm_ab = numpy.array(cisd_wavefunction.get_tpdm(
            'AB', False)).reshape(molecule.n_orbitals, molecule.n_orbitals,
                                  molecule.n_orbitals, molecule.n_orbitals)
        cisd_two_rdm_bb = numpy.array(cisd_wavefunction.get_tpdm(
            'BB', False)).reshape(molecule.n_orbitals, molecule.n_orbitals,
                                  molecule.n_orbitals, molecule.n_orbitals)

        # Get overall RDMs.
        cisd_one_rdm, cisd_two_rdm = unpack_spatial_rdm(
            cisd_one_rdm_a, cisd_one_rdm_b, cisd_two_rdm_aa,
            cisd_two_rdm_ab, cisd_two_rdm_bb)

        # Store 1-RDM in molecule file, 2-RDM separately in other file.
        molecule.cisd_one_rdm = cisd_one_rdm
        molecule.cisd_two_rdm = cisd_two_rdm
        molecule.save()


# Perform exact diagonalization.
if True:
    set qc_module detci
    try:
        fci_energy, fci_wavefunction = energy('fci', return_wfn=True)
        if False:
            print('FCI energy for {} ({} electrons) is {}.'.format(
                molecule.name, molecule.n_electrons, fci_energy))
    except:
        if False:
            print('WARNING: FCI calculation failed.')
        else:
            raise
    finally:
        # For the functions below, "a" and "b" refer to "up and "down" spins.
        molecule.fci_energy = fci_energy

        # Get 1-RDM from FCI calculation.
        fci_one_rdm_a = numpy.array(fci_wavefunction.get_opdm(
            0, 0, 'A', True)).reshape(molecule.n_orbitals, molecule.n_orbitals)
        fci_one_rdm_b = numpy.array(fci_wavefunction.get_opdm(
            0, 0, 'B', True)).reshape(molecule.n_orbitals, molecule.n_orbitals)

        # Get 2-RDM from FCI calculation.
        fci_two_rdm_aa = numpy.array(fci_wavefunction.get_tpdm(
            'AA', False)).reshape(molecule.n_orbitals, molecule.n_orbitals,
                                  molecule.n_orbitals, molecule.n_orbitals)
        fci_two_rdm_ab = numpy.array(fci_wavefunction.get_tpdm(
            'AB', False)).reshape(molecule.n_orbitals, molecule.n_orbitals,
                                  molecule.n_orbitals, molecule.n_orbitals)
        fci_two_rdm_bb = numpy.array(fci_wavefunction.get_tpdm(
            'BB', False)).reshape(molecule.n_orbitals, molecule.n_orbitals,
                                  molecule.n_orbitals, molecule.n_orbitals)

        # Get overall RDMs.
        fci_one_rdm, fci_two_rdm = unpack_spatial_rdm(
            fci_one_rdm_a, fci_one_rdm_b,
            fci_two_rdm_aa, fci_two_rdm_ab, fci_two_rdm_bb)

        # Store 1-RDM in molecule file, 2-RDM separately in other file.
        molecule.fci_one_rdm = fci_one_rdm
        molecule.fci_two_rdm = fci_two_rdm
        molecule.save()


# Perform coupled cluster singles and doubles (CCSD) calculation.
if True:
    set qc_module ccenergy
    try:
        ccsd_energy = energy('ccsd')
        if False:
            print('CCSD energy for {} ({} electrons) is {}.'.format(
                molecule.name, molecule.n_electrons, ccsd_energy))
    except:
        if False:
            print('WARNING: CCSD calculation failed.')
        else:
            raise
    else:
        molecule.ccsd_energy = ccsd_energy

        # Merge CC amplitudes into molecule by parsing
        psi_filename = outfile_name()
        single_cc_amplitudes, double_cc_amplitudes = (
            parse_psi4_ccsd_amplitudes(
                2 * molecule.n_orbitals,
                molecule.get_n_alpha_electrons(),
                molecule.get_n_beta_electrons(),
                psi_filename))

        molecule.ccsd_single_amps = single_cc_amplitudes
        molecule.ccsd_double_amps = double_cc_amplitudes
        molecule.save()
--------------------------------------------------------------------------

  Memory set to   7.451 GiB by Python driver.

*** tstart() called on trurls-machine
*** at Thu Mar  5 13:57:55 2020

   => Loading Basis Set <=

    Name: STO-3G
    Role: ORBITAL
    Keyword: BASIS
    atoms 1, 3-4 entry O          line    81 file /Users/teague/anaconda3/envs/gen_env/share/psi4/basis/sto-3g.gbs 
    atoms 2      entry N          line    71 file /Users/teague/anaconda3/envs/gen_env/share/psi4/basis/sto-3g.gbs 


         ---------------------------------------------------------
                                   SCF
               by Justin Turney, Rob Parrish, Andy Simmonett
                          and Daniel G. A. Smith
                              RHF Reference
                        1 Threads,   7629 MiB Core
         ---------------------------------------------------------

  ==> Geometry <==

    Molecular point group: c1
    Full point group: C2v

    Geometry (in Angstrom), charge = -1, multiplicity = 1:

       Center              X                  Y                   Z               Mass       
    ------------   -----------------  -----------------  -----------------  -----------------
         O           -0.000000000000     0.000000000000     1.238632326974    15.994914619570
         N           -0.000000000000     0.000000000000    -0.000567673026    14.003074004430
         O           -1.073300000000     0.000000000000    -0.619067673026    15.994914619570
         O            1.073300000000     0.000000000000    -0.619067673026    15.994914619570

  Running in c1 symmetry.

  Rotational constants: A =      0.45809  B =      0.45745  C =      0.22889 [cm^-1]
  Rotational constants: A =  13733.31246  B =  13713.96443  C =   6861.81581 [MHz]
  Nuclear repulsion =  119.106715507527142

  Charge       = -1
  Multiplicity = 1
  Electrons    = 32
  Nalpha       = 16
  Nbeta        = 16

  ==> Algorithm <==

  SCF Algorithm Type is PK.
  DIIS enabled.
  MOM disabled.
  Fractional occupation disabled.
  Guess Type is SAD.
  Energy threshold   = 1.00e-06
  Density threshold  = 1.00e-06
  Integral threshold = 0.00e+00

  ==> Primary Basis <==

  Basis Set: STO-3G
    Blend: STO-3G
    Number of shells: 12
    Number of basis function: 20
    Number of Cartesian functions: 20
    Spherical Harmonics?: true
    Max angular momentum: 1

  ==> Pre-Iterations <==

   -------------------------------------------------------
    Irrep   Nso     Nmo     Nalpha   Nbeta   Ndocc  Nsocc
   -------------------------------------------------------
     A         20      20       0       0       0       0
   -------------------------------------------------------
    Total      20      20      16      16      16       0
   -------------------------------------------------------

  ==> Integral Setup <==

  Using in-core PK algorithm.
   Calculation information:
      Number of atoms:                   4
      Number of AO shells:              12
      Number of primitives:             36
      Number of atomic orbitals:        20
      Number of basis functions:        20

      Integral cutoff                 1.00e-12
      Number of threads:                 1

  Performing in-core PK
  Using 44310 doubles for integral storage.
  We computed 2844 shell quartets total.
  Whereas there are 3081 unique shell quartets.

  ==> DiskJK: Disk-Based J/K Matrices <==

    J tasked:                  Yes
    K tasked:                  Yes
    wK tasked:                  No
    Memory [MiB]:             5722
    Schwarz Cutoff:          1E-12

    OpenMP threads:              1

  Minimum eigenvalue in the overlap matrix is 2.7092791123E-01.
  Using Symmetric Orthogonalization.

  SCF Guess: Superposition of Atomic Densities via on-the-fly atomic UHF.

  ==> Iterations <==

                        Total Energy        Delta E     RMS |[F,P]|

   @RHF iter SAD:  -273.44573156591218   -2.73446e+02   0.00000e+00 
   @RHF iter   1:  -274.62154144437426   -1.17581e+00   3.84734e-02 DIIS
   @RHF iter   2:  -274.89107681205837   -2.69535e-01   1.55275e-02 DIIS
   @RHF iter   3:  -274.94126606906690   -5.01893e-02   1.29825e-03 DIIS
   @RHF iter   4:  -274.94210270762323   -8.36639e-04   2.54295e-04 DIIS
   @RHF iter   5:  -274.94213789697551   -3.51894e-05   7.09694e-05 DIIS
   @RHF iter   6:  -274.94214076786409   -2.87089e-06   7.72116e-06 DIIS
   @RHF iter   7:  -274.94214078738707   -1.95230e-08   2.42216e-06 DIIS
   @RHF iter   8:  -274.94214078912131   -1.73424e-09   1.72794e-07 DIIS
  Energy and wave function converged.


  ==> Post-Iterations <==

    Orbital Energies [Eh]
    ---------------------

    Doubly Occupied:                                                      

       1A    -19.848920     2A    -19.848898     3A    -19.848426  
       4A    -15.362958     5A     -1.236234     6A     -0.957737  
       7A     -0.957158     8A     -0.432243     9A     -0.367157  
      10A     -0.306723    11A     -0.306687    12A     -0.033538  
      13A     -0.033321    14A     -0.013829    15A      0.009126  
      16A      0.009380  

    Virtual:                                                              

      17A      0.575823    18A      1.016221    19A      1.173648  
      20A      1.174957  

    Final Occupation by Irrep:
              A 
    DOCC [    16 ]

  @RHF Final Energy:  -274.94214078912131

   => Energetics <=

    Nuclear Repulsion Energy =            119.1067155075271415
    One-Electron Energy =                -629.0270641215249725
    Two-Electron Energy =                 234.9782078248765060
    Total Energy =                       -274.9421407891213107

Computation Completed


Properties will be evaluated at   0.000000,   0.000000,   0.000000 [a0]

Properties computed using the SCF density matrix

  Nuclear Dipole Moment: [e a0]
     X:     0.0000      Y:     0.0000      Z:     0.0000

  Electronic Dipole Moment: [e a0]
     X:     0.0000      Y:     0.0000      Z:    -0.0018

  Dipole Moment: [e a0]
     X:     0.0000      Y:     0.0000      Z:    -0.0018     Total:     0.0018

  Dipole Moment: [D]
     X:     0.0000      Y:     0.0000      Z:    -0.0045     Total:     0.0045


*** tstop() called on trurls-machine at Thu Mar  5 13:57:55 2020
Module time:
	user time   =       0.24 seconds =       0.00 minutes
	system time =       0.02 seconds =       0.00 minutes
	total time  =          0 seconds =       0.00 minutes
Total time:
	user time   =       0.24 seconds =       0.00 minutes
	system time =       0.02 seconds =       0.00 minutes
	total time  =          0 seconds =       0.00 minutes

*** tstart() called on trurls-machine
*** at Thu Mar  5 13:57:56 2020

   => Loading Basis Set <=

    Name: STO-3G
    Role: ORBITAL
    Keyword: BASIS
    atoms 1, 3-4 entry O          line    81 file /Users/teague/anaconda3/envs/gen_env/share/psi4/basis/sto-3g.gbs 
    atoms 2      entry N          line    71 file /Users/teague/anaconda3/envs/gen_env/share/psi4/basis/sto-3g.gbs 


         ---------------------------------------------------------
                                   SCF
               by Justin Turney, Rob Parrish, Andy Simmonett
                          and Daniel G. A. Smith
                              RHF Reference
                        1 Threads,   7629 MiB Core
         ---------------------------------------------------------

  ==> Geometry <==

    Molecular point group: c1
    Full point group: C2v

    Geometry (in Angstrom), charge = -1, multiplicity = 1:

       Center              X                  Y                   Z               Mass       
    ------------   -----------------  -----------------  -----------------  -----------------
         O           -0.000000000000     0.000000000000     1.238632326974    15.994914619570
         N           -0.000000000000     0.000000000000    -0.000567673026    14.003074004430
         O           -1.073300000000     0.000000000000    -0.619067673026    15.994914619570
         O            1.073300000000     0.000000000000    -0.619067673026    15.994914619570

  Running in c1 symmetry.

  Rotational constants: A =      0.45809  B =      0.45745  C =      0.22889 [cm^-1]
  Rotational constants: A =  13733.31246  B =  13713.96443  C =   6861.81581 [MHz]
  Nuclear repulsion =  119.106715507527127

  Charge       = -1
  Multiplicity = 1
  Electrons    = 32
  Nalpha       = 16
  Nbeta        = 16

  ==> Algorithm <==

  SCF Algorithm Type is PK.
  DIIS enabled.
  MOM disabled.
  Fractional occupation disabled.
  Guess Type is SAD.
  Energy threshold   = 1.00e-06
  Density threshold  = 1.00e-06
  Integral threshold = 0.00e+00

  ==> Primary Basis <==

  Basis Set: STO-3G
    Blend: STO-3G
    Number of shells: 12
    Number of basis function: 20
    Number of Cartesian functions: 20
    Spherical Harmonics?: true
    Max angular momentum: 1

  ==> Pre-Iterations <==

   -------------------------------------------------------
    Irrep   Nso     Nmo     Nalpha   Nbeta   Ndocc  Nsocc
   -------------------------------------------------------
     A         20      20       0       0       0       0
   -------------------------------------------------------
    Total      20      20      16      16      16       0
   -------------------------------------------------------

  ==> Integral Setup <==

  Using in-core PK algorithm.
   Calculation information:
      Number of atoms:                   4
      Number of AO shells:              12
      Number of primitives:             36
      Number of atomic orbitals:        20
      Number of basis functions:        20

      Integral cutoff                 1.00e-12
      Number of threads:                 1

  Performing in-core PK
  Using 44310 doubles for integral storage.
  We computed 2844 shell quartets total.
  Whereas there are 3081 unique shell quartets.

  ==> DiskJK: Disk-Based J/K Matrices <==

    J tasked:                  Yes
    K tasked:                  Yes
    wK tasked:                  No
    Memory [MiB]:             5722
    Schwarz Cutoff:          1E-12

    OpenMP threads:              1

  Minimum eigenvalue in the overlap matrix is 2.7092791123E-01.
  Using Symmetric Orthogonalization.

  SCF Guess: Superposition of Atomic Densities via on-the-fly atomic UHF.

  ==> Iterations <==

                        Total Energy        Delta E     RMS |[F,P]|

   @RHF iter SAD:  -273.44573156591247   -2.73446e+02   0.00000e+00 
   @RHF iter   1:  -274.62154144437420   -1.17581e+00   3.84734e-02 DIIS
   @RHF iter   2:  -274.89107681205837   -2.69535e-01   1.55275e-02 DIIS
   @RHF iter   3:  -274.94126606906678   -5.01893e-02   1.29825e-03 DIIS
   @RHF iter   4:  -274.94210270762323   -8.36639e-04   2.54295e-04 DIIS
   @RHF iter   5:  -274.94213789697523   -3.51894e-05   7.09694e-05 DIIS
   @RHF iter   6:  -274.94214076786398   -2.87089e-06   7.72116e-06 DIIS
   @RHF iter   7:  -274.94214078738696   -1.95230e-08   2.42216e-06 DIIS
   @RHF iter   8:  -274.94214078912091   -1.73395e-09   1.72794e-07 DIIS
  Energy and wave function converged.


  ==> Post-Iterations <==

    Orbital Energies [Eh]
    ---------------------

    Doubly Occupied:                                                      

       1A    -19.848920     2A    -19.848898     3A    -19.848426  
       4A    -15.362958     5A     -1.236234     6A     -0.957737  
       7A     -0.957158     8A     -0.432243     9A     -0.367157  
      10A     -0.306723    11A     -0.306687    12A     -0.033538  
      13A     -0.033321    14A     -0.013829    15A      0.009126  
      16A      0.009380  

    Virtual:                                                              

      17A      0.575823    18A      1.016221    19A      1.173648  
      20A      1.174957  

    Final Occupation by Irrep:
              A 
    DOCC [    16 ]

  @RHF Final Energy:  -274.94214078912091

   => Energetics <=

    Nuclear Repulsion Energy =            119.1067155075271273
    One-Electron Energy =                -629.0270641215242904
    Two-Electron Energy =                 234.9782078248761934
    Total Energy =                       -274.9421407891209128

Computation Completed


Properties will be evaluated at   0.000000,   0.000000,   0.000000 [a0]

Properties computed using the SCF density matrix

  Nuclear Dipole Moment: [e a0]
     X:     0.0000      Y:     0.0000      Z:     0.0000

  Electronic Dipole Moment: [e a0]
     X:    -0.0000      Y:     0.0000      Z:    -0.0018

  Dipole Moment: [e a0]
     X:    -0.0000      Y:     0.0000      Z:    -0.0018     Total:     0.0018

  Dipole Moment: [D]
     X:    -0.0000      Y:     0.0000      Z:    -0.0045     Total:     0.0045


*** tstop() called on trurls-machine at Thu Mar  5 13:57:56 2020
Module time:
	user time   =       0.23 seconds =       0.00 minutes
	system time =       0.01 seconds =       0.00 minutes
	total time  =          0 seconds =       0.00 minutes
Total time:
	user time   =       0.85 seconds =       0.01 minutes
	system time =       0.11 seconds =       0.00 minutes
	total time  =          1 seconds =       0.02 minutes

*** tstart() called on trurls-machine
*** at Thu Mar  5 13:57:56 2020


  //>>>>>>>>>>>>>>>>>>>>>>>>>>>>>>>>>>>//
  //               DFMP2               //
  //<<<<<<<<<<<<<<<<<<<<<<<<<<<<<<<<<<<//

   => Loading Basis Set <=

    Name: (STO-3G AUX)
    Role: RIFIT
    Keyword: DF_BASIS_MP2
    atoms 1, 3-4 entry O          line   406 file /Users/teague/anaconda3/envs/gen_env/share/psi4/basis/def2-qzvpp-ri.gbs 
    atoms 2      entry N          line   338 file /Users/teague/anaconda3/envs/gen_env/share/psi4/basis/def2-qzvpp-ri.gbs 

	 --------------------------------------------------------
	                          DF-MP2                         
	      2nd-Order Density-Fitted Moller-Plesset Theory     
	              RMP2 Wavefunction,   1 Threads             
	                                                         
	        Rob Parrish, Justin Turney, Andy Simmonett,      
	           Ed Hohenstein, and C. David Sherrill          
	 --------------------------------------------------------

   => Auxiliary Basis Set <=

  Basis Set: (STO-3G AUX)
    Blend: DEF2-QZVPP-RI
    Number of shells: 132
    Number of basis function: 564
    Number of Cartesian functions: 764
    Spherical Harmonics?: true
    Max angular momentum: 5

	 --------------------------------------------------------
	                 NBF =    20, NAUX =   564
	 --------------------------------------------------------
	   CLASS    FOCC     OCC    AOCC    AVIR     VIR    FVIR
	   PAIRS       0      16      16       4       4       0
	 --------------------------------------------------------

	-----------------------------------------------------------
	 ==================> DF-MP2 Energies <==================== 
	-----------------------------------------------------------
	 Reference Energy          =    -274.9421407891209128 [Eh]
	 Singles Energy            =      -0.0000000000000000 [Eh]
	 Same-Spin Energy          =      -0.0443841380226736 [Eh]
	 Opposite-Spin Energy      =      -0.1412833485885034 [Eh]
	 Correlation Energy        =      -0.1856674866111770 [Eh]
	 Total Energy              =    -275.1278082757320931 [Eh]
	-----------------------------------------------------------
	 ================> DF-SCS-MP2 Energies <================== 
	-----------------------------------------------------------
	 SCS Same-Spin Scale       =       0.3333333333333333 [-]
	 SCS Opposite-Spin Scale   =       1.2000000000000000 [-]
	 SCS Same-Spin Energy      =      -0.0147947126742245 [Eh]
	 SCS Opposite-Spin Energy  =      -0.1695400183062040 [Eh]
	 SCS Correlation Energy    =      -0.1843347309804286 [Eh]
	 SCS Total Energy          =    -275.1264755201013372 [Eh]
	-----------------------------------------------------------


*** tstop() called on trurls-machine at Thu Mar  5 13:57:56 2020
Module time:
	user time   =       0.18 seconds =       0.00 minutes
	system time =       0.01 seconds =       0.00 minutes
	total time  =          0 seconds =       0.00 minutes
Total time:
	user time   =       1.03 seconds =       0.02 minutes
	system time =       0.12 seconds =       0.00 minutes
	total time  =          1 seconds =       0.02 minutes

*** tstart() called on trurls-machine
*** at Thu Mar  5 13:57:56 2020

   => Loading Basis Set <=

    Name: STO-3G
    Role: ORBITAL
    Keyword: BASIS
    atoms 1, 3-4 entry O          line    81 file /Users/teague/anaconda3/envs/gen_env/share/psi4/basis/sto-3g.gbs 
    atoms 2      entry N          line    71 file /Users/teague/anaconda3/envs/gen_env/share/psi4/basis/sto-3g.gbs 


         ---------------------------------------------------------
                                   SCF
               by Justin Turney, Rob Parrish, Andy Simmonett
                          and Daniel G. A. Smith
                              RHF Reference
                        1 Threads,   7629 MiB Core
         ---------------------------------------------------------

  ==> Geometry <==

    Molecular point group: c1
    Full point group: C2v

    Geometry (in Angstrom), charge = -1, multiplicity = 1:

       Center              X                  Y                   Z               Mass       
    ------------   -----------------  -----------------  -----------------  -----------------
         O           -0.000000000000     0.000000000000     1.238632326974    15.994914619570
         N           -0.000000000000     0.000000000000    -0.000567673026    14.003074004430
         O           -1.073300000000     0.000000000000    -0.619067673026    15.994914619570
         O            1.073300000000     0.000000000000    -0.619067673026    15.994914619570

  Running in c1 symmetry.

  Rotational constants: A =      0.45809  B =      0.45745  C =      0.22889 [cm^-1]
  Rotational constants: A =  13733.31246  B =  13713.96443  C =   6861.81581 [MHz]
  Nuclear repulsion =  119.106715507527127

  Charge       = -1
  Multiplicity = 1
  Electrons    = 32
  Nalpha       = 16
  Nbeta        = 16

  ==> Algorithm <==

  SCF Algorithm Type is PK.
  DIIS enabled.
  MOM disabled.
  Fractional occupation disabled.
  Guess Type is SAD.
  Energy threshold   = 1.00e-06
  Density threshold  = 1.00e-06
  Integral threshold = 0.00e+00

  ==> Primary Basis <==

  Basis Set: STO-3G
    Blend: STO-3G
    Number of shells: 12
    Number of basis function: 20
    Number of Cartesian functions: 20
    Spherical Harmonics?: true
    Max angular momentum: 1

  ==> Pre-Iterations <==

   -------------------------------------------------------
    Irrep   Nso     Nmo     Nalpha   Nbeta   Ndocc  Nsocc
   -------------------------------------------------------
     A         20      20       0       0       0       0
   -------------------------------------------------------
    Total      20      20      16      16      16       0
   -------------------------------------------------------

  ==> Integral Setup <==

  Using in-core PK algorithm.
   Calculation information:
      Number of atoms:                   4
      Number of AO shells:              12
      Number of primitives:             36
      Number of atomic orbitals:        20
      Number of basis functions:        20

      Integral cutoff                 1.00e-12
      Number of threads:                 1

  Performing in-core PK
  Using 44310 doubles for integral storage.
  We computed 2844 shell quartets total.
  Whereas there are 3081 unique shell quartets.

  ==> DiskJK: Disk-Based J/K Matrices <==

    J tasked:                  Yes
    K tasked:                  Yes
    wK tasked:                  No
    Memory [MiB]:             5722
    Schwarz Cutoff:          1E-12

    OpenMP threads:              1

  Minimum eigenvalue in the overlap matrix is 2.7092791123E-01.
  Using Symmetric Orthogonalization.

  SCF Guess: Superposition of Atomic Densities via on-the-fly atomic UHF.

  ==> Iterations <==

                        Total Energy        Delta E     RMS |[F,P]|

   @RHF iter SAD:  -273.44573156591224   -2.73446e+02   0.00000e+00 
   @RHF iter   1:  -274.62154144437454   -1.17581e+00   3.84734e-02 DIIS
   @RHF iter   2:  -274.89107681205849   -2.69535e-01   1.55275e-02 DIIS
   @RHF iter   3:  -274.94126606906678   -5.01893e-02   1.29825e-03 DIIS
   @RHF iter   4:  -274.94210270762278   -8.36639e-04   2.54295e-04 DIIS
   @RHF iter   5:  -274.94213789697528   -3.51894e-05   7.09694e-05 DIIS
   @RHF iter   6:  -274.94214076786386   -2.87089e-06   7.72116e-06 DIIS
   @RHF iter   7:  -274.94214078738719   -1.95233e-08   2.42216e-06 DIIS
   @RHF iter   8:  -274.94214078912103   -1.73384e-09   1.72794e-07 DIIS
  Energy and wave function converged.


  ==> Post-Iterations <==

    Orbital Energies [Eh]
    ---------------------

    Doubly Occupied:                                                      

       1A    -19.848920     2A    -19.848898     3A    -19.848426  
       4A    -15.362958     5A     -1.236234     6A     -0.957737  
       7A     -0.957158     8A     -0.432243     9A     -0.367157  
      10A     -0.306723    11A     -0.306687    12A     -0.033538  
      13A     -0.033321    14A     -0.013829    15A      0.009126  
      16A      0.009380  

    Virtual:                                                              

      17A      0.575823    18A      1.016221    19A      1.173648  
      20A      1.174957  

    Final Occupation by Irrep:
              A 
    DOCC [    16 ]

  @RHF Final Energy:  -274.94214078912103

   => Energetics <=

    Nuclear Repulsion Energy =            119.1067155075271273
    One-Electron Energy =                -629.0270641215241767
    Two-Electron Energy =                 234.9782078248759944
    Total Energy =                       -274.9421407891210265

Computation Completed


Properties will be evaluated at   0.000000,   0.000000,   0.000000 [a0]

Properties computed using the SCF density matrix

  Nuclear Dipole Moment: [e a0]
     X:     0.0000      Y:     0.0000      Z:     0.0000

  Electronic Dipole Moment: [e a0]
     X:    -0.0000      Y:    -0.0000      Z:    -0.0018

  Dipole Moment: [e a0]
     X:    -0.0000      Y:    -0.0000      Z:    -0.0018     Total:     0.0018

  Dipole Moment: [D]
     X:    -0.0000      Y:    -0.0000      Z:    -0.0045     Total:     0.0045


*** tstop() called on trurls-machine at Thu Mar  5 13:57:57 2020
Module time:
	user time   =       0.23 seconds =       0.00 minutes
	system time =       0.02 seconds =       0.00 minutes
	total time  =          1 seconds =       0.02 minutes
Total time:
	user time   =       1.48 seconds =       0.02 minutes
	system time =       0.20 seconds =       0.00 minutes
	total time  =          2 seconds =       0.03 minutes
 MINTS: Wrapper to libmints.
   by Justin Turney

   Calculation information:
      Number of threads:                 1
      Number of atoms:                   4
      Number of AO shells:              12
      Number of SO shells:              12
      Number of primitives:             36
      Number of atomic orbitals:        20
      Number of basis functions:        20

      Number of irreps:                  1
      Integral cutoff                 0.00e+00
      Number of functions per irrep: [  20 ]

 OEINTS: Overlap, kinetic, potential, dipole, and quadrupole integrals
         stored in file 35.

      Computing two-electron integrals...done
      Computed 12668 non-zero two-electron integrals.
        Stored in file 33.


         ---------------------------------------------------------
                          Configuration Interaction
                            (a 'D E T C I' module)

                 C. David Sherrill, Daniel G. A. Smith, and
                              Matt L. Leininger
         ---------------------------------------------------------


   ==> Parameters <==

    EX LEVEL       =        2      H0 BLOCKSIZE  =     1000
    VAL EX LEVEL   =        0      H0 GUESS SIZE =     1000
    H0COUPLINGSIZE =        0      H0 COUPLING   =       NO
    MAXITER        =       24      NUM PRINT     =       20
    NUM ROOTS      =        1      ICORE         =        1
    PRINT LVL      =        1      FCI           =       NO
    R CONV         = 1.00e-06      MIXED         =      YES
    E CONV         = 1.00e-06      MIXED4        =      YES
    R4S            =       NO      REPL OTF      =       NO
    DIAG METHOD    =      SEM      FOLLOW ROOT   =        0
    PRECONDITIONER = DAVIDSON      UPDATE        = DAVIDSON
    S              =   0.0000      Ms0           =      YES
    GUESS VECTOR   =  H0BLOCK      OPENTYPE      =     NONE
    COLLAPSE SIZE  =        1      HD AVG        = EVANGELISTI
    MAX NUM VECS   =       25      REF SYM       =     AUTO
    IOPEN        =       NO

    EX ALLOW       =  1  1 
    STATE AVERAGE  =  0(1.00) 

   ==> CI Orbital and Space information <==

    RAS1 LVL      =       15      A RAS3 MAX    =        2
    RAS1 MIN      =       30      B RAS3 MAX    =        2
    A RAS1 LVL    =       15      RAS4 LVL      =       20
    A RAS1 MIN    =       14      A RAS4 MAX    =        0
    A RAS1 MAX    =       16      B RAS4 MAX    =        0
    B RAS1 LVL    =       15      RAS4 MAX      =        0
    B RAS1 MIN    =       14      A RAS34 MAX   =        2
    B RAS1 MAX    =       16      B RAS34 MAX   =        2
    RAS3 LVL      =       16      RAS34 MAX     =        2
    RAS3 MAX      =        2
   ------------------------------------
               Space    Total     A
   ------------------------------------
                 Nso       20    20
                 Nmo       20    20
               Ndocc       16    16
               Nsocc        0     0
   ------------------------------------
              CI Spaces
   ------------------------------------
        Dropped DOCC        0     0
                RAS1       16    16
                RAS2        0     0
                RAS3        4     4
                RAS4        0     0
      Active (total)       20    20
        Dropped UOCC        0     0
   ------------------------------------

   ==> Setting up CI strings <==

    There are 785 alpha and 785 beta strings
    The CI space requires 5665 (5.66E+03) determinants and 6 blocks

   ==> Transforming CI integrals <==

	Presorting SO-basis two-electron integrals.
	Sorting File: SO Ints (nn|nn) nbuckets = 1
	Transforming the one-electron integrals and constructing Fock matrices
	Starting first half-transformation.
	Sorting half-transformed integrals.
	First half integral transformation complete.
	Starting second half-transformation.
	Two-electron integral transformation complete.

   ==> Starting CI iterations <==

    H0 Block Eigenvalue = -275.04569692

    Simultaneous Expansion Method (Block Davidson Method)
    Using 1 initial trial vectors

     Iter   Root       Total Energy       Delta E      C RMS

   @CI  0:     0   -275.045696920448   -3.9415E+02   4.8876E-01  
   @CI  1:     0   -275.128097905105   -8.2401E-02   8.3473E-02  
   @CI  2:     0   -275.131172046566   -3.0741E-03   2.9221E-02  
   @CI  3:     0   -275.131563728055   -3.9168E-04   7.7570E-03  
   @CI  4:     0   -275.131590739584   -2.7012E-05   1.6207E-03  
   @CI  5:     0   -275.131591920150   -1.1806E-06   4.2367E-04  
   @CI  6:     0   -275.131592006144   -8.5994E-08   1.2294E-04  
   @CI  7:     0   -275.131592016021   -9.8769E-09   4.6817E-05  
   @CI  8:     0   -275.131592017359   -1.3374E-09   1.5841E-05  
   @CI  9:     0   -275.131592017472   -1.1363E-10   4.6834E-06  
   @CI 10:     0   -275.131592017484   -1.1937E-11   1.4266E-06  
   @CI 11:     0   -275.131592017485   -9.6634E-13   4.2404E-07 c

   ==> Energetics <==

    SCF energy =         -274.942140789121027
    Total CI energy =    -275.131592017485218

   ==> CISD root 0 information <==

    CISD Root 0 energy =  -275.131592017485218

   The 20 most important determinants:

    *   1    0.952338  (    0,    0)  1AX 2AX 3AX 4AX 5AX 6AX 7AX 8AX 9AX 10AX 11AX 12AX 13AX 14AX 15AX 16AX 
    *   2   -0.100086  (    2,    2)  1AX 2AX 3AX 4AX 5AX 6AX 7AX 8AX 9AX 10AX 11AX 12AX 13AX 14AX 16AX 17AX 
    *   3   -0.100084  (    1,    1)  1AX 2AX 3AX 4AX 5AX 6AX 7AX 8AX 9AX 10AX 11AX 12AX 13AX 14AX 15AX 17AX 
    *   4   -0.050699  (    8,    8)  1AX 2AX 3AX 4AX 5AX 6AX 7AX 8AX 10AX 11AX 12AX 13AX 14AX 15AX 16AX 17AX 
    *   5    0.043777  (    0,    8)  1AX 2AX 3AX 4AX 5AX 6AX 7AX 8AX 9AA 10AX 11AX 12AX 13AX 14AX 15AX 16AX 17AB 
    *   6    0.043777  (    8,    0)  1AX 2AX 3AX 4AX 5AX 6AX 7AX 8AX 9AB 10AX 11AX 12AX 13AX 14AX 15AX 16AX 17AA 
    *   7   -0.034742  (    1,   20)  1AX 2AX 3AX 4AX 5AX 6AX 7AX 8AX 9AX 10AX 11AX 12AX 13AA 14AX 15AX 16AB 17AA 18AB 
    *   8   -0.034742  (   20,    1)  1AX 2AX 3AX 4AX 5AX 6AX 7AX 8AX 9AX 10AX 11AX 12AX 13AB 14AX 15AX 16AA 17AB 18AA 
    *   9   -0.034729  (    2,   21)  1AX 2AX 3AX 4AX 5AX 6AX 7AX 8AX 9AX 10AX 11AX 12AA 13AX 14AX 15AB 16AX 17AA 18AB 
    *  10   -0.034729  (   21,    2)  1AX 2AX 3AX 4AX 5AX 6AX 7AX 8AX 9AX 10AX 11AX 12AB 13AX 14AX 15AA 16AX 17AB 18AA 
    *  11   -0.030425  (    0,   67)  1AX 2AX 3AX 4AX 5AX 6AX 7AX 8AX 9AX 10AX 11AX 12AX 13AA 14AX 15AX 16AA 17AB 18AB 
    *  12   -0.030425  (   67,    0)  1AX 2AX 3AX 4AX 5AX 6AX 7AX 8AX 9AX 10AX 11AX 12AX 13AB 14AX 15AX 16AB 17AA 18AA 
    *  13   -0.030416  (    0,   82)  1AX 2AX 3AX 4AX 5AX 6AX 7AX 8AX 9AX 10AX 11AX 12AA 13AX 14AX 15AA 16AX 17AB 18AB 
    *  14   -0.030416  (   82,    0)  1AX 2AX 3AX 4AX 5AX 6AX 7AX 8AX 9AX 10AX 11AX 12AB 13AX 14AX 15AB 16AX 17AA 18AA 
    *  15   -0.029142  (   39,   39)  1AX 2AX 3AX 4AX 5AX 6AX 7AX 8AX 9AX 11AX 12AX 13AX 14AX 15AX 16AX 19AX 
    *  16   -0.029106  (   54,   54)  1AX 2AX 3AX 4AX 5AX 6AX 7AX 8AX 9AX 10AX 12AX 13AX 14AX 15AX 16AX 20AX 
    *  17   -0.027144  (    8,   39)  1AX 2AX 3AX 4AX 5AX 6AX 7AX 8AX 9AB 10AA 11AX 12AX 13AX 14AX 15AX 16AX 17AA 19AB 
    *  18   -0.027144  (   39,    8)  1AX 2AX 3AX 4AX 5AX 6AX 7AX 8AX 9AA 10AB 11AX 12AX 13AX 14AX 15AX 16AX 17AB 19AA 
    *  19   -0.027139  (    8,   54)  1AX 2AX 3AX 4AX 5AX 6AX 7AX 8AX 9AB 10AX 11AA 12AX 13AX 14AX 15AX 16AX 17AA 20AB 
    *  20   -0.027139  (   54,    8)  1AX 2AX 3AX 4AX 5AX 6AX 7AX 8AX 9AA 10AX 11AB 12AX 13AX 14AX 15AX 16AX 17AB 20AA 

		 "A good bug is a dead bug" 

			 - Starship Troopers

		 "I didn't write FORTRAN.  That's the problem."

			 - Edward Valeev

*** tstart() called on trurls-machine
*** at Thu Mar  5 13:57:58 2020

   => Loading Basis Set <=

    Name: STO-3G
    Role: ORBITAL
    Keyword: BASIS
    atoms 1, 3-4 entry O          line    81 file /Users/teague/anaconda3/envs/gen_env/share/psi4/basis/sto-3g.gbs 
    atoms 2      entry N          line    71 file /Users/teague/anaconda3/envs/gen_env/share/psi4/basis/sto-3g.gbs 


         ---------------------------------------------------------
                                   SCF
               by Justin Turney, Rob Parrish, Andy Simmonett
                          and Daniel G. A. Smith
                              RHF Reference
                        1 Threads,   7629 MiB Core
         ---------------------------------------------------------

  ==> Geometry <==

    Molecular point group: c1
    Full point group: C2v

    Geometry (in Angstrom), charge = -1, multiplicity = 1:

       Center              X                  Y                   Z               Mass       
    ------------   -----------------  -----------------  -----------------  -----------------
         O           -0.000000000000     0.000000000000     1.238632326974    15.994914619570
         N           -0.000000000000     0.000000000000    -0.000567673026    14.003074004430
         O           -1.073300000000     0.000000000000    -0.619067673026    15.994914619570
         O            1.073300000000     0.000000000000    -0.619067673026    15.994914619570

  Running in c1 symmetry.

  Rotational constants: A =      0.45809  B =      0.45745  C =      0.22889 [cm^-1]
  Rotational constants: A =  13733.31246  B =  13713.96443  C =   6861.81581 [MHz]
  Nuclear repulsion =  119.106715507527127

  Charge       = -1
  Multiplicity = 1
  Electrons    = 32
  Nalpha       = 16
  Nbeta        = 16

  ==> Algorithm <==

  SCF Algorithm Type is PK.
  DIIS enabled.
  MOM disabled.
  Fractional occupation disabled.
  Guess Type is SAD.
  Energy threshold   = 1.00e-06
  Density threshold  = 1.00e-06
  Integral threshold = 0.00e+00

  ==> Primary Basis <==

  Basis Set: STO-3G
    Blend: STO-3G
    Number of shells: 12
    Number of basis function: 20
    Number of Cartesian functions: 20
    Spherical Harmonics?: true
    Max angular momentum: 1

  ==> Pre-Iterations <==

   -------------------------------------------------------
    Irrep   Nso     Nmo     Nalpha   Nbeta   Ndocc  Nsocc
   -------------------------------------------------------
     A         20      20       0       0       0       0
   -------------------------------------------------------
    Total      20      20      16      16      16       0
   -------------------------------------------------------

  ==> Integral Setup <==

  Using in-core PK algorithm.
   Calculation information:
      Number of atoms:                   4
      Number of AO shells:              12
      Number of primitives:             36
      Number of atomic orbitals:        20
      Number of basis functions:        20

      Integral cutoff                 1.00e-12
      Number of threads:                 1

  Performing in-core PK
  Using 44310 doubles for integral storage.
  We computed 2844 shell quartets total.
  Whereas there are 3081 unique shell quartets.

  ==> DiskJK: Disk-Based J/K Matrices <==

    J tasked:                  Yes
    K tasked:                  Yes
    wK tasked:                  No
    Memory [MiB]:             5722
    Schwarz Cutoff:          1E-12

    OpenMP threads:              1

  Minimum eigenvalue in the overlap matrix is 2.7092791123E-01.
  Using Symmetric Orthogonalization.

  SCF Guess: Superposition of Atomic Densities via on-the-fly atomic UHF.

  ==> Iterations <==

                        Total Energy        Delta E     RMS |[F,P]|

   @RHF iter SAD:  -273.44573156591224   -2.73446e+02   0.00000e+00 
   @RHF iter   1:  -274.62154144437454   -1.17581e+00   3.84734e-02 DIIS
   @RHF iter   2:  -274.89107681205849   -2.69535e-01   1.55275e-02 DIIS
   @RHF iter   3:  -274.94126606906678   -5.01893e-02   1.29825e-03 DIIS
   @RHF iter   4:  -274.94210270762278   -8.36639e-04   2.54295e-04 DIIS
   @RHF iter   5:  -274.94213789697528   -3.51894e-05   7.09694e-05 DIIS
   @RHF iter   6:  -274.94214076786386   -2.87089e-06   7.72116e-06 DIIS
   @RHF iter   7:  -274.94214078738719   -1.95233e-08   2.42216e-06 DIIS
   @RHF iter   8:  -274.94214078912103   -1.73384e-09   1.72794e-07 DIIS
  Energy and wave function converged.


  ==> Post-Iterations <==

    Orbital Energies [Eh]
    ---------------------

    Doubly Occupied:                                                      

       1A    -19.848920     2A    -19.848898     3A    -19.848426  
       4A    -15.362958     5A     -1.236234     6A     -0.957737  
       7A     -0.957158     8A     -0.432243     9A     -0.367157  
      10A     -0.306723    11A     -0.306687    12A     -0.033538  
      13A     -0.033321    14A     -0.013829    15A      0.009126  
      16A      0.009380  

    Virtual:                                                              

      17A      0.575823    18A      1.016221    19A      1.173648  
      20A      1.174957  

    Final Occupation by Irrep:
              A 
    DOCC [    16 ]

  @RHF Final Energy:  -274.94214078912103

   => Energetics <=

    Nuclear Repulsion Energy =            119.1067155075271273
    One-Electron Energy =                -629.0270641215241767
    Two-Electron Energy =                 234.9782078248759944
    Total Energy =                       -274.9421407891210265

Computation Completed


Properties will be evaluated at   0.000000,   0.000000,   0.000000 [a0]

Properties computed using the SCF density matrix

  Nuclear Dipole Moment: [e a0]
     X:     0.0000      Y:     0.0000      Z:     0.0000

  Electronic Dipole Moment: [e a0]
     X:    -0.0000      Y:    -0.0000      Z:    -0.0018

  Dipole Moment: [e a0]
     X:    -0.0000      Y:    -0.0000      Z:    -0.0018     Total:     0.0018

  Dipole Moment: [D]
     X:    -0.0000      Y:    -0.0000      Z:    -0.0045     Total:     0.0045


*** tstop() called on trurls-machine at Thu Mar  5 13:57:58 2020
Module time:
	user time   =       0.22 seconds =       0.00 minutes
	system time =       0.02 seconds =       0.00 minutes
	total time  =          0 seconds =       0.00 minutes
Total time:
	user time   =       3.08 seconds =       0.05 minutes
	system time =       0.34 seconds =       0.01 minutes
	total time  =          3 seconds =       0.05 minutes
 MINTS: Wrapper to libmints.
   by Justin Turney

   Calculation information:
      Number of threads:                 1
      Number of atoms:                   4
      Number of AO shells:              12
      Number of SO shells:              12
      Number of primitives:             36
      Number of atomic orbitals:        20
      Number of basis functions:        20

      Number of irreps:                  1
      Integral cutoff                 0.00e+00
      Number of functions per irrep: [  20 ]

 OEINTS: Overlap, kinetic, potential, dipole, and quadrupole integrals
         stored in file 35.

      Computing two-electron integrals...done
      Computed 12668 non-zero two-electron integrals.
        Stored in file 33.


         ---------------------------------------------------------
                          Configuration Interaction
                            (a 'D E T C I' module)

                 C. David Sherrill, Daniel G. A. Smith, and
                              Matt L. Leininger
         ---------------------------------------------------------


   ==> Parameters <==

    EX LEVEL       =       32      H0 BLOCKSIZE  =     1000
    VAL EX LEVEL   =        0      H0 GUESS SIZE =     1000
    H0COUPLINGSIZE =        0      H0 COUPLING   =       NO
    MAXITER        =       24      NUM PRINT     =       20
    NUM ROOTS      =        1      ICORE         =        1
    PRINT LVL      =        1      FCI           =      YES
    R CONV         = 1.00e-06      MIXED         =      YES
    E CONV         = 1.00e-06      MIXED4        =      YES
    R4S            =       NO      REPL OTF      =       NO
    DIAG METHOD    =      SEM      FOLLOW ROOT   =        0
    PRECONDITIONER = DAVIDSON      UPDATE        = DAVIDSON
    S              =   0.0000      Ms0           =      YES
    GUESS VECTOR   =  H0BLOCK      OPENTYPE      =     NONE
    COLLAPSE SIZE  =        1      HD AVG        = EVANGELISTI
    MAX NUM VECS   =       25      REF SYM       =     AUTO
    IOPEN        =       NO

    EX ALLOW       =  1  1  1  1  1  1  1  1  1  1  1  1  1  1  1  1  1  1  1  1  1  1  1  1  1  1  1  1  1  1  1  1 
    STATE AVERAGE  =  0(1.00) 

   ==> CI Orbital and Space information <==

   ------------------------------------
               Space    Total     A
   ------------------------------------
                 Nso       20    20
                 Nmo       20    20
               Ndocc       16    16
               Nsocc        0     0
   ------------------------------------
              CI Spaces
   ------------------------------------
        Dropped DOCC        0     0
              Active       20    20
        Dropped UOCC        0     0
   ------------------------------------

   ==> Setting up CI strings <==

    There are 4845 alpha and 4845 beta strings
    The CI space requires 23474025 (2.35E+07) determinants and 1 blocks

   ==> Transforming CI integrals <==

	Presorting SO-basis two-electron integrals.
	Sorting File: SO Ints (nn|nn) nbuckets = 1
	Transforming the one-electron integrals and constructing Fock matrices
	Starting first half-transformation.
	Sorting half-transformed integrals.
	First half integral transformation complete.
	Starting second half-transformation.
	Two-electron integral transformation complete.

   ==> Starting CI iterations <==

    H0 Block Eigenvalue = -275.04565123

    Simultaneous Expansion Method (Block Davidson Method)
    Using 1 initial trial vectors

     Iter   Root       Total Energy       Delta E      C RMS

   @CI  0:     0   -275.045651234164   -3.9415E+02   5.3790E-01  

Traceback (most recent call last):
  File "/Users/teague/anaconda3/envs/gen_env/bin/psi4", line 287, in <module>
    exec(content)
  File "<string>", line 171, in <module>

NameError: name 'fci_energy' is not defined


Printing out the relevant lines from the Psithon --> Python processed input file:
                print('WARNING: FCI calculation failed.')
            else:
                raise
        finally:
           
-->         molecule.fci_energy = fci_energy
           
            fci_one_rdm_a = numpy.array(fci_wavefunction.get_opdm(
                0, 0, 'A', True)).reshape(molecule.n_orbitals, molecule.n_orbitals)
            fci_one_rdm_b = numpy.array(fci_wavefunction.get_opdm(
                0, 0, 'B', True)).reshape(molecule.n_orbitals, molecule.n_orbitals)

    Psi4 stopped on: Thursday, 05 March 2020 01:59PM
    Psi4 wall time for execution: 0:01:42.47

*** Psi4 encountered an error. Buy a developer more coffee!
*** Resources and help at github.com/psi4/psi4.
