
    -----------------------------------------------------------------------
          Psi4: An Open-Source Ab Initio Electronic Structure Package
                               Psi4 1.3.2 release

                         Git: Rev {HEAD} ecbda83 


    R. M. Parrish, L. A. Burns, D. G. A. Smith, A. C. Simmonett,
    A. E. DePrince III, E. G. Hohenstein, U. Bozkaya, A. Yu. Sokolov,
    R. Di Remigio, R. M. Richard, J. F. Gonthier, A. M. James,
    H. R. McAlexander, A. Kumar, M. Saitow, X. Wang, B. P. Pritchard,
    P. Verma, H. F. Schaefer III, K. Patkowski, R. A. King, E. F. Valeev,
    F. A. Evangelista, J. M. Turney, T. D. Crawford, and C. D. Sherrill,
    J. Chem. Theory Comput. 13(7) pp 3185--3197 (2017).
    (doi: 10.1021/acs.jctc.7b00174)


                         Additional Contributions by
    P. Kraus, H. Kruse, M. H. Lechner, M. C. Schieber, R. A. Shaw,
    A. Alenaizan, R. Galvelis, Z. L. Glick, S. Lehtola, and J. P. Misiewicz

    -----------------------------------------------------------------------


    Psi4 started on: Thursday, 05 March 2020 11:20AM

    Process ID: 94991
    Host:       trurls-machine
    PSIDATADIR: /Users/teague/anaconda3/envs/gen_env/share/psi4
    Memory:     500.0 MiB
    Threads:    1
    
  ==> Input File <==

--------------------------------------------------------------------------
"""This is a template for psi4 input format."""
import numpy
import sys

from openfermion.config import *
from openfermion.hamiltonians import MolecularData
from openfermion.ops import general_basis_change

from numpy import array

sys.path.append('/Users/teague/.local/lib/python3.7/site-packages/openfermionpsi4')
from _psi4_conversion_functions import *


# Set memory that job can use in megabytes.
memory 8000 mb

# Initialize molecular data.
_description = 'NIST_singlet'
if _description == 'None':
    _description = None
molecule = MolecularData([('O', (-0.0576, 0.0, 0.0)), ('O', (1.1584, 0.0, 0.0))],
                         'sto-3g',
                         1,
                         0,
                         _description,
                          filename='molecule_data/O2_sto-3g_singlet_NIST_singlet')

# Set molecular geometry and symmetry.
molecule mol {
O -0.0576 0.0 0.0
O 1.1584 0.0 0.0
symmetry c1
}
mol.set_multiplicity(1)
mol.set_molecular_charge(0)

# Set reference and guess.
if molecule.multiplicity == 1:
    set reference rhf
    set guess sad
else:
    set reference rohf
    set guess gwh

# Set global parameters of calculation.
set globals {
    basis sto-3g
    freeze_core false
    fail_on_maxiter True
    df_scf_guess false
    opdm true
    tpdm true
    soscf false
    scf_type pk
    maxiter 1e6
    num_amps_print 1e6
    r_convergence 1e-6
    d_convergence 1e-6
    e_convergence 1e-6
    ints_tolerance EQUALITY_TOLERANCE
    damping_percentage 0
}

# Run self-consistent field (SCF) calculation.
if True:
    try:
        hf_energy, hf_wavefunction = energy('scf', return_wfn=True)
        if False:
            print('Hartree-Fock energy for {} ({} electrons) is {}.'.format(
                molecule.name, molecule.n_electrons, hf_energy))
    except:
        if False:
            print('WARNING: SCF calculation failed.')
        else:
            raise
    finally:
        # Get orbitals and Fock matrix.
        molecule.hf_energy = hf_energy
        molecule.nuclear_repulsion = mol.nuclear_repulsion_energy()
        molecule.canonical_orbitals = numpy.asarray(hf_wavefunction.Ca())
        molecule.overlap_integrals = numpy.asarray(hf_wavefunction.S())
        molecule.n_orbitals = molecule.canonical_orbitals.shape[0]
        molecule.n_qubits = 2 * molecule.n_orbitals
        molecule.orbital_energies = numpy.asarray(hf_wavefunction.epsilon_a())
        molecule.fock_matrix = numpy.asarray(hf_wavefunction.Fa())

        # Get integrals using MintsHelper.
        mints = MintsHelper(hf_wavefunction.basisset())
        molecule.one_body_integrals = general_basis_change(
            numpy.asarray(mints.ao_kinetic()), molecule.canonical_orbitals, (1, 0))
        molecule.one_body_integrals += general_basis_change(
            numpy.asarray(mints.ao_potential()), molecule.canonical_orbitals, (1, 0))
        two_body_integrals = numpy.asarray(mints.ao_eri())
        two_body_integrals.reshape((molecule.n_orbitals, molecule.n_orbitals,
                                    molecule.n_orbitals, molecule.n_orbitals))
        two_body_integrals = numpy.einsum('psqr', two_body_integrals)
        two_body_integrals = general_basis_change(
            two_body_integrals, molecule.canonical_orbitals, (1, 1, 0, 0))
        molecule.two_body_integrals = two_body_integrals
        molecule.save()


# Perform MP2 energy calculation if there are at least two electrons.
if True:
    try:
        assert molecule.n_electrons > 1
        mp2_energy = energy('mp2')
        if False:
            print('MP2 energy for {} ({} electrons) is {}.'.format(
                molecule.name, molecule.n_electrons, mp2_energy))
    except:
        if False:
            print('WARNING: MP2 calculation failed.')
        else:
            raise
    else:
        molecule.mp2_energy = mp2_energy
        molecule.save()


# Perform configuration interaction singles and doubles (CISD) calculation.
if True:
    set qc_module detci
    try:
        cisd_energy, cisd_wavefunction = energy('cisd', return_wfn=True)
        if False:
            print('CISD energy for {} ({} electrons) is {}.'.format(
                molecule.name, molecule.n_electrons, cisd_energy))
    except:
        if False:
            print('WARNING: CISD calculation failed.')
        else:
            raise
    else:
        # For the functions below, "a" and "b" refer to "up and "down" spins.
        molecule.cisd_energy = cisd_energy

        # Get 1-RDM from CISD calculation.
        cisd_one_rdm_a = numpy.array(cisd_wavefunction.get_opdm(
            0, 0, 'A', True)).reshape(molecule.n_orbitals, molecule.n_orbitals)
        cisd_one_rdm_b = numpy.array(cisd_wavefunction.get_opdm(
            0, 0, 'B', True)).reshape(molecule.n_orbitals, molecule.n_orbitals)

        # Get 2-RDM from CISD calculation.
        cisd_two_rdm_aa = numpy.array(cisd_wavefunction.get_tpdm(
            'AA', False)).reshape(molecule.n_orbitals, molecule.n_orbitals,
                                  molecule.n_orbitals, molecule.n_orbitals)
        cisd_two_rdm_ab = numpy.array(cisd_wavefunction.get_tpdm(
            'AB', False)).reshape(molecule.n_orbitals, molecule.n_orbitals,
                                  molecule.n_orbitals, molecule.n_orbitals)
        cisd_two_rdm_bb = numpy.array(cisd_wavefunction.get_tpdm(
            'BB', False)).reshape(molecule.n_orbitals, molecule.n_orbitals,
                                  molecule.n_orbitals, molecule.n_orbitals)

        # Get overall RDMs.
        cisd_one_rdm, cisd_two_rdm = unpack_spatial_rdm(
            cisd_one_rdm_a, cisd_one_rdm_b, cisd_two_rdm_aa,
            cisd_two_rdm_ab, cisd_two_rdm_bb)

        # Store 1-RDM in molecule file, 2-RDM separately in other file.
        molecule.cisd_one_rdm = cisd_one_rdm
        molecule.cisd_two_rdm = cisd_two_rdm
        molecule.save()


# Perform exact diagonalization.
if True:
    set qc_module detci
    try:
        fci_energy, fci_wavefunction = energy('fci', return_wfn=True)
        if False:
            print('FCI energy for {} ({} electrons) is {}.'.format(
                molecule.name, molecule.n_electrons, fci_energy))
    except:
        if False:
            print('WARNING: FCI calculation failed.')
        else:
            raise
    finally:
        # For the functions below, "a" and "b" refer to "up and "down" spins.
        molecule.fci_energy = fci_energy

        # Get 1-RDM from FCI calculation.
        fci_one_rdm_a = numpy.array(fci_wavefunction.get_opdm(
            0, 0, 'A', True)).reshape(molecule.n_orbitals, molecule.n_orbitals)
        fci_one_rdm_b = numpy.array(fci_wavefunction.get_opdm(
            0, 0, 'B', True)).reshape(molecule.n_orbitals, molecule.n_orbitals)

        # Get 2-RDM from FCI calculation.
        fci_two_rdm_aa = numpy.array(fci_wavefunction.get_tpdm(
            'AA', False)).reshape(molecule.n_orbitals, molecule.n_orbitals,
                                  molecule.n_orbitals, molecule.n_orbitals)
        fci_two_rdm_ab = numpy.array(fci_wavefunction.get_tpdm(
            'AB', False)).reshape(molecule.n_orbitals, molecule.n_orbitals,
                                  molecule.n_orbitals, molecule.n_orbitals)
        fci_two_rdm_bb = numpy.array(fci_wavefunction.get_tpdm(
            'BB', False)).reshape(molecule.n_orbitals, molecule.n_orbitals,
                                  molecule.n_orbitals, molecule.n_orbitals)

        # Get overall RDMs.
        fci_one_rdm, fci_two_rdm = unpack_spatial_rdm(
            fci_one_rdm_a, fci_one_rdm_b,
            fci_two_rdm_aa, fci_two_rdm_ab, fci_two_rdm_bb)

        # Store 1-RDM in molecule file, 2-RDM separately in other file.
        molecule.fci_one_rdm = fci_one_rdm
        molecule.fci_two_rdm = fci_two_rdm
        molecule.save()


# Perform coupled cluster singles and doubles (CCSD) calculation.
if True:
    set qc_module ccenergy
    try:
        ccsd_energy = energy('ccsd')
        if False:
            print('CCSD energy for {} ({} electrons) is {}.'.format(
                molecule.name, molecule.n_electrons, ccsd_energy))
    except:
        if False:
            print('WARNING: CCSD calculation failed.')
        else:
            raise
    else:
        molecule.ccsd_energy = ccsd_energy

        # Merge CC amplitudes into molecule by parsing
        psi_filename = outfile_name()
        single_cc_amplitudes, double_cc_amplitudes = (
            parse_psi4_ccsd_amplitudes(
                2 * molecule.n_orbitals,
                molecule.get_n_alpha_electrons(),
                molecule.get_n_beta_electrons(),
                psi_filename))

        molecule.ccsd_single_amps = single_cc_amplitudes
        molecule.ccsd_double_amps = double_cc_amplitudes
        molecule.save()
--------------------------------------------------------------------------

  Memory set to   7.451 GiB by Python driver.

*** tstart() called on trurls-machine
*** at Thu Mar  5 11:20:56 2020

   => Loading Basis Set <=

    Name: STO-3G
    Role: ORBITAL
    Keyword: BASIS
    atoms 1-2 entry O          line    81 file /Users/teague/anaconda3/envs/gen_env/share/psi4/basis/sto-3g.gbs 


         ---------------------------------------------------------
                                   SCF
               by Justin Turney, Rob Parrish, Andy Simmonett
                          and Daniel G. A. Smith
                              RHF Reference
                        1 Threads,   7629 MiB Core
         ---------------------------------------------------------

  ==> Geometry <==

    Molecular point group: c1
    Full point group: D_inf_h

    Geometry (in Angstrom), charge = 0, multiplicity = 1:

       Center              X                  Y                   Z               Mass       
    ------------   -----------------  -----------------  -----------------  -----------------
         O           -0.608000000000     0.000000000000     0.000000000000    15.994914619570
         O            0.608000000000     0.000000000000     0.000000000000    15.994914619570

  Running in c1 symmetry.

  Rotational constants: A = ************  B =      1.42553  C =      1.42553 [cm^-1]
  Rotational constants: A = ************  B =  42736.41805  C =  42736.41805 [MHz]
  Nuclear repulsion =   27.851432140526317

  Charge       = 0
  Multiplicity = 1
  Electrons    = 16
  Nalpha       = 8
  Nbeta        = 8

  ==> Algorithm <==

  SCF Algorithm Type is PK.
  DIIS enabled.
  MOM disabled.
  Fractional occupation disabled.
  Guess Type is SAD.
  Energy threshold   = 1.00e-06
  Density threshold  = 1.00e-06
  Integral threshold = 0.00e+00

  ==> Primary Basis <==

  Basis Set: STO-3G
    Blend: STO-3G
    Number of shells: 6
    Number of basis function: 10
    Number of Cartesian functions: 10
    Spherical Harmonics?: true
    Max angular momentum: 1

  ==> Pre-Iterations <==

   -------------------------------------------------------
    Irrep   Nso     Nmo     Nalpha   Nbeta   Ndocc  Nsocc
   -------------------------------------------------------
     A         10      10       0       0       0       0
   -------------------------------------------------------
    Total      10      10       8       8       8       0
   -------------------------------------------------------

  ==> Integral Setup <==

  Using in-core PK algorithm.
   Calculation information:
      Number of atoms:                   2
      Number of AO shells:               6
      Number of primitives:             18
      Number of atomic orbitals:        10
      Number of basis functions:        10

      Integral cutoff                 1.00e-12
      Number of threads:                 1

  Performing in-core PK
  Using 3080 doubles for integral storage.
  We computed 230 shell quartets total.
  Whereas there are 231 unique shell quartets.

  ==> DiskJK: Disk-Based J/K Matrices <==

    J tasked:                  Yes
    K tasked:                  Yes
    wK tasked:                  No
    Memory [MiB]:             5722
    Schwarz Cutoff:          1E-12

    OpenMP threads:              1

  Minimum eigenvalue in the overlap matrix is 3.6562966003E-01.
  Using Symmetric Orthogonalization.

  SCF Guess: Superposition of Atomic Densities via on-the-fly atomic UHF.

  ==> Iterations <==

                        Total Energy        Delta E     RMS |[F,P]|

   @RHF iter SAD:  -146.44456135262459   -1.46445e+02   0.00000e+00 
   @RHF iter   1:  -147.53860776617827   -1.09405e+00   1.35787e-02 DIIS
   @RHF iter   2:  -147.55077598264000   -1.21682e-02   3.09024e-03 DIIS
   @RHF iter   3:  -147.55149399383143   -7.18011e-04   1.86038e-04 DIIS
   @RHF iter   4:  -147.55149601876914   -2.02494e-06   6.14945e-07 DIIS
   @RHF iter   5:  -147.55149601879648   -2.73417e-11   1.70189e-09 DIIS
  Energy and wave function converged.


  ==> Post-Iterations <==

    Orbital Energies [Eh]
    ---------------------

    Doubly Occupied:                                                      

       1A    -20.423684     2A    -20.423058     3A     -1.546621  
       4A     -0.994652     5A     -0.638037     6A     -0.579469  
       7A     -0.513598     8A     -0.332567  

    Virtual:                                                              

       9A      0.185626    10A      0.720397  

    Final Occupation by Irrep:
              A 
    DOCC [     8 ]

  @RHF Final Energy:  -147.55149601879648

   => Energetics <=

    Nuclear Repulsion Energy =             27.8514321405263168
    One-Electron Energy =                -259.9024854834665348
    Two-Electron Energy =                  84.4995573241437370
    Total Energy =                       -147.5514960187964562

Computation Completed


Properties will be evaluated at   0.000000,   0.000000,   0.000000 [a0]

Properties computed using the SCF density matrix

  Nuclear Dipole Moment: [e a0]
     X:     0.0000      Y:     0.0000      Z:     0.0000

  Electronic Dipole Moment: [e a0]
     X:    -0.0000      Y:     0.0000      Z:     0.0000

  Dipole Moment: [e a0]
     X:    -0.0000      Y:     0.0000      Z:     0.0000     Total:     0.0000

  Dipole Moment: [D]
     X:    -0.0000      Y:     0.0000      Z:     0.0000     Total:     0.0000


*** tstop() called on trurls-machine at Thu Mar  5 11:20:56 2020
Module time:
	user time   =       0.14 seconds =       0.00 minutes
	system time =       0.01 seconds =       0.00 minutes
	total time  =          0 seconds =       0.00 minutes
Total time:
	user time   =       0.14 seconds =       0.00 minutes
	system time =       0.01 seconds =       0.00 minutes
	total time  =          0 seconds =       0.00 minutes

*** tstart() called on trurls-machine
*** at Thu Mar  5 11:20:56 2020

   => Loading Basis Set <=

    Name: STO-3G
    Role: ORBITAL
    Keyword: BASIS
    atoms 1-2 entry O          line    81 file /Users/teague/anaconda3/envs/gen_env/share/psi4/basis/sto-3g.gbs 


         ---------------------------------------------------------
                                   SCF
               by Justin Turney, Rob Parrish, Andy Simmonett
                          and Daniel G. A. Smith
                              RHF Reference
                        1 Threads,   7629 MiB Core
         ---------------------------------------------------------

  ==> Geometry <==

    Molecular point group: c1
    Full point group: D_inf_h

    Geometry (in Angstrom), charge = 0, multiplicity = 1:

       Center              X                  Y                   Z               Mass       
    ------------   -----------------  -----------------  -----------------  -----------------
         O           -0.608000000000     0.000000000000     0.000000000000    15.994914619570
         O            0.608000000000     0.000000000000     0.000000000000    15.994914619570

  Running in c1 symmetry.

  Rotational constants: A = ************  B =      1.42553  C =      1.42553 [cm^-1]
  Rotational constants: A = ************  B =  42736.41805  C =  42736.41805 [MHz]
  Nuclear repulsion =   27.851432140526317

  Charge       = 0
  Multiplicity = 1
  Electrons    = 16
  Nalpha       = 8
  Nbeta        = 8

  ==> Algorithm <==

  SCF Algorithm Type is PK.
  DIIS enabled.
  MOM disabled.
  Fractional occupation disabled.
  Guess Type is SAD.
  Energy threshold   = 1.00e-06
  Density threshold  = 1.00e-06
  Integral threshold = 0.00e+00

  ==> Primary Basis <==

  Basis Set: STO-3G
    Blend: STO-3G
    Number of shells: 6
    Number of basis function: 10
    Number of Cartesian functions: 10
    Spherical Harmonics?: true
    Max angular momentum: 1

  ==> Pre-Iterations <==

   -------------------------------------------------------
    Irrep   Nso     Nmo     Nalpha   Nbeta   Ndocc  Nsocc
   -------------------------------------------------------
     A         10      10       0       0       0       0
   -------------------------------------------------------
    Total      10      10       8       8       8       0
   -------------------------------------------------------

  ==> Integral Setup <==

  Using in-core PK algorithm.
   Calculation information:
      Number of atoms:                   2
      Number of AO shells:               6
      Number of primitives:             18
      Number of atomic orbitals:        10
      Number of basis functions:        10

      Integral cutoff                 1.00e-12
      Number of threads:                 1

  Performing in-core PK
  Using 3080 doubles for integral storage.
  We computed 230 shell quartets total.
  Whereas there are 231 unique shell quartets.

  ==> DiskJK: Disk-Based J/K Matrices <==

    J tasked:                  Yes
    K tasked:                  Yes
    wK tasked:                  No
    Memory [MiB]:             5722
    Schwarz Cutoff:          1E-12

    OpenMP threads:              1

  Minimum eigenvalue in the overlap matrix is 3.6562966003E-01.
  Using Symmetric Orthogonalization.

  SCF Guess: Superposition of Atomic Densities via on-the-fly atomic UHF.

  ==> Iterations <==

                        Total Energy        Delta E     RMS |[F,P]|

   @RHF iter SAD:  -146.44456135262459   -1.46445e+02   0.00000e+00 
   @RHF iter   1:  -147.53860776617827   -1.09405e+00   1.35787e-02 DIIS
   @RHF iter   2:  -147.55077598264000   -1.21682e-02   3.09024e-03 DIIS
   @RHF iter   3:  -147.55149399383143   -7.18011e-04   1.86038e-04 DIIS
   @RHF iter   4:  -147.55149601876914   -2.02494e-06   6.14945e-07 DIIS
   @RHF iter   5:  -147.55149601879648   -2.73417e-11   1.70189e-09 DIIS
  Energy and wave function converged.


  ==> Post-Iterations <==

    Orbital Energies [Eh]
    ---------------------

    Doubly Occupied:                                                      

       1A    -20.423684     2A    -20.423058     3A     -1.546621  
       4A     -0.994652     5A     -0.638037     6A     -0.579469  
       7A     -0.513598     8A     -0.332567  

    Virtual:                                                              

       9A      0.185626    10A      0.720397  

    Final Occupation by Irrep:
              A 
    DOCC [     8 ]

  @RHF Final Energy:  -147.55149601879648

   => Energetics <=

    Nuclear Repulsion Energy =             27.8514321405263168
    One-Electron Energy =                -259.9024854834665348
    Two-Electron Energy =                  84.4995573241437370
    Total Energy =                       -147.5514960187964562

Computation Completed


Properties will be evaluated at   0.000000,   0.000000,   0.000000 [a0]

Properties computed using the SCF density matrix

  Nuclear Dipole Moment: [e a0]
     X:     0.0000      Y:     0.0000      Z:     0.0000

  Electronic Dipole Moment: [e a0]
     X:    -0.0000      Y:     0.0000      Z:     0.0000

  Dipole Moment: [e a0]
     X:    -0.0000      Y:     0.0000      Z:     0.0000     Total:     0.0000

  Dipole Moment: [D]
     X:    -0.0000      Y:     0.0000      Z:     0.0000     Total:     0.0000


*** tstop() called on trurls-machine at Thu Mar  5 11:20:56 2020
Module time:
	user time   =       0.13 seconds =       0.00 minutes
	system time =       0.01 seconds =       0.00 minutes
	total time  =          0 seconds =       0.00 minutes
Total time:
	user time   =       0.30 seconds =       0.01 minutes
	system time =       0.02 seconds =       0.00 minutes
	total time  =          0 seconds =       0.00 minutes

*** tstart() called on trurls-machine
*** at Thu Mar  5 11:20:56 2020


  //>>>>>>>>>>>>>>>>>>>>>>>>>>>>>>>>>>>//
  //               DFMP2               //
  //<<<<<<<<<<<<<<<<<<<<<<<<<<<<<<<<<<<//

   => Loading Basis Set <=

    Name: (STO-3G AUX)
    Role: RIFIT
    Keyword: DF_BASIS_MP2
    atoms 1-2 entry O          line   406 file /Users/teague/anaconda3/envs/gen_env/share/psi4/basis/def2-qzvpp-ri.gbs 

	 --------------------------------------------------------
	                          DF-MP2                         
	      2nd-Order Density-Fitted Moller-Plesset Theory     
	              RMP2 Wavefunction,   1 Threads             
	                                                         
	        Rob Parrish, Justin Turney, Andy Simmonett,      
	           Ed Hohenstein, and C. David Sherrill          
	 --------------------------------------------------------

   => Auxiliary Basis Set <=

  Basis Set: (STO-3G AUX)
    Blend: DEF2-QZVPP-RI
    Number of shells: 66
    Number of basis function: 282
    Number of Cartesian functions: 382
    Spherical Harmonics?: true
    Max angular momentum: 5

	 --------------------------------------------------------
	                 NBF =    10, NAUX =   282
	 --------------------------------------------------------
	   CLASS    FOCC     OCC    AOCC    AVIR     VIR    FVIR
	   PAIRS       0       8       8       2       2       0
	 --------------------------------------------------------

	-----------------------------------------------------------
	 ==================> DF-MP2 Energies <==================== 
	-----------------------------------------------------------
	 Reference Energy          =    -147.5514960187964846 [Eh]
	 Singles Energy            =      -0.0000000000000000 [Eh]
	 Same-Spin Energy          =      -0.0255308586466160 [Eh]
	 Opposite-Spin Energy      =      -0.1022349669933772 [Eh]
	 Correlation Energy        =      -0.1277658256399932 [Eh]
	 Total Energy              =    -147.6792618444364678 [Eh]
	-----------------------------------------------------------
	 ================> DF-SCS-MP2 Energies <================== 
	-----------------------------------------------------------
	 SCS Same-Spin Scale       =       0.3333333333333333 [-]
	 SCS Opposite-Spin Scale   =       1.2000000000000000 [-]
	 SCS Same-Spin Energy      =      -0.0085102862155387 [Eh]
	 SCS Opposite-Spin Energy  =      -0.1226819603920526 [Eh]
	 SCS Correlation Energy    =      -0.1311922466075912 [Eh]
	 SCS Total Energy          =    -147.6826882654040674 [Eh]
	-----------------------------------------------------------


*** tstop() called on trurls-machine at Thu Mar  5 11:20:56 2020
Module time:
	user time   =       0.08 seconds =       0.00 minutes
	system time =       0.00 seconds =       0.00 minutes
	total time  =          0 seconds =       0.00 minutes
Total time:
	user time   =       0.38 seconds =       0.01 minutes
	system time =       0.02 seconds =       0.00 minutes
	total time  =          0 seconds =       0.00 minutes

*** tstart() called on trurls-machine
*** at Thu Mar  5 11:20:56 2020

   => Loading Basis Set <=

    Name: STO-3G
    Role: ORBITAL
    Keyword: BASIS
    atoms 1-2 entry O          line    81 file /Users/teague/anaconda3/envs/gen_env/share/psi4/basis/sto-3g.gbs 


         ---------------------------------------------------------
                                   SCF
               by Justin Turney, Rob Parrish, Andy Simmonett
                          and Daniel G. A. Smith
                              RHF Reference
                        1 Threads,   7629 MiB Core
         ---------------------------------------------------------

  ==> Geometry <==

    Molecular point group: c1
    Full point group: D_inf_h

    Geometry (in Angstrom), charge = 0, multiplicity = 1:

       Center              X                  Y                   Z               Mass       
    ------------   -----------------  -----------------  -----------------  -----------------
         O           -0.608000000000     0.000000000000     0.000000000000    15.994914619570
         O            0.608000000000     0.000000000000     0.000000000000    15.994914619570

  Running in c1 symmetry.

  Rotational constants: A = ************  B =      1.42553  C =      1.42553 [cm^-1]
  Rotational constants: A = ************  B =  42736.41805  C =  42736.41805 [MHz]
  Nuclear repulsion =   27.851432140526317

  Charge       = 0
  Multiplicity = 1
  Electrons    = 16
  Nalpha       = 8
  Nbeta        = 8

  ==> Algorithm <==

  SCF Algorithm Type is PK.
  DIIS enabled.
  MOM disabled.
  Fractional occupation disabled.
  Guess Type is SAD.
  Energy threshold   = 1.00e-06
  Density threshold  = 1.00e-06
  Integral threshold = 0.00e+00

  ==> Primary Basis <==

  Basis Set: STO-3G
    Blend: STO-3G
    Number of shells: 6
    Number of basis function: 10
    Number of Cartesian functions: 10
    Spherical Harmonics?: true
    Max angular momentum: 1

  ==> Pre-Iterations <==

   -------------------------------------------------------
    Irrep   Nso     Nmo     Nalpha   Nbeta   Ndocc  Nsocc
   -------------------------------------------------------
     A         10      10       0       0       0       0
   -------------------------------------------------------
    Total      10      10       8       8       8       0
   -------------------------------------------------------

  ==> Integral Setup <==

  Using in-core PK algorithm.
   Calculation information:
      Number of atoms:                   2
      Number of AO shells:               6
      Number of primitives:             18
      Number of atomic orbitals:        10
      Number of basis functions:        10

      Integral cutoff                 1.00e-12
      Number of threads:                 1

  Performing in-core PK
  Using 3080 doubles for integral storage.
  We computed 230 shell quartets total.
  Whereas there are 231 unique shell quartets.

  ==> DiskJK: Disk-Based J/K Matrices <==

    J tasked:                  Yes
    K tasked:                  Yes
    wK tasked:                  No
    Memory [MiB]:             5722
    Schwarz Cutoff:          1E-12

    OpenMP threads:              1

  Minimum eigenvalue in the overlap matrix is 3.6562966003E-01.
  Using Symmetric Orthogonalization.

  SCF Guess: Superposition of Atomic Densities via on-the-fly atomic UHF.

  ==> Iterations <==

                        Total Energy        Delta E     RMS |[F,P]|

   @RHF iter SAD:  -146.44456135262459   -1.46445e+02   0.00000e+00 
   @RHF iter   1:  -147.53860776617827   -1.09405e+00   1.35787e-02 DIIS
   @RHF iter   2:  -147.55077598264000   -1.21682e-02   3.09024e-03 DIIS
   @RHF iter   3:  -147.55149399383143   -7.18011e-04   1.86038e-04 DIIS
   @RHF iter   4:  -147.55149601876914   -2.02494e-06   6.14945e-07 DIIS
   @RHF iter   5:  -147.55149601879648   -2.73417e-11   1.70189e-09 DIIS
  Energy and wave function converged.


  ==> Post-Iterations <==

    Orbital Energies [Eh]
    ---------------------

    Doubly Occupied:                                                      

       1A    -20.423684     2A    -20.423058     3A     -1.546621  
       4A     -0.994652     5A     -0.638037     6A     -0.579469  
       7A     -0.513598     8A     -0.332567  

    Virtual:                                                              

       9A      0.185626    10A      0.720397  

    Final Occupation by Irrep:
              A 
    DOCC [     8 ]

  @RHF Final Energy:  -147.55149601879648

   => Energetics <=

    Nuclear Repulsion Energy =             27.8514321405263168
    One-Electron Energy =                -259.9024854834665348
    Two-Electron Energy =                  84.4995573241437370
    Total Energy =                       -147.5514960187964562

Computation Completed


Properties will be evaluated at   0.000000,   0.000000,   0.000000 [a0]

Properties computed using the SCF density matrix

  Nuclear Dipole Moment: [e a0]
     X:     0.0000      Y:     0.0000      Z:     0.0000

  Electronic Dipole Moment: [e a0]
     X:    -0.0000      Y:     0.0000      Z:     0.0000

  Dipole Moment: [e a0]
     X:    -0.0000      Y:     0.0000      Z:     0.0000     Total:     0.0000

  Dipole Moment: [D]
     X:    -0.0000      Y:     0.0000      Z:     0.0000     Total:     0.0000


*** tstop() called on trurls-machine at Thu Mar  5 11:20:57 2020
Module time:
	user time   =       0.12 seconds =       0.00 minutes
	system time =       0.01 seconds =       0.00 minutes
	total time  =          1 seconds =       0.02 minutes
Total time:
	user time   =       0.53 seconds =       0.01 minutes
	system time =       0.03 seconds =       0.00 minutes
	total time  =          1 seconds =       0.02 minutes
 MINTS: Wrapper to libmints.
   by Justin Turney

   Calculation information:
      Number of threads:                 1
      Number of atoms:                   2
      Number of AO shells:               6
      Number of SO shells:               6
      Number of primitives:             18
      Number of atomic orbitals:        10
      Number of basis functions:        10

      Number of irreps:                  1
      Integral cutoff                 0.00e+00
      Number of functions per irrep: [  10 ]

 OEINTS: Overlap, kinetic, potential, dipole, and quadrupole integrals
         stored in file 35.

      Computing two-electron integrals...done
      Computed 512 non-zero two-electron integrals.
        Stored in file 33.


         ---------------------------------------------------------
                          Configuration Interaction
                            (a 'D E T C I' module)

                 C. David Sherrill, Daniel G. A. Smith, and
                              Matt L. Leininger
         ---------------------------------------------------------


   ==> Parameters <==

    EX LEVEL       =        2      H0 BLOCKSIZE  =     1000
    VAL EX LEVEL   =        0      H0 GUESS SIZE =     1000
    H0COUPLINGSIZE =        0      H0 COUPLING   =       NO
    MAXITER        =       24      NUM PRINT     =       20
    NUM ROOTS      =        1      ICORE         =        1
    PRINT LVL      =        1      FCI           =       NO
    R CONV         = 1.00e-06      MIXED         =      YES
    E CONV         = 1.00e-06      MIXED4        =      YES
    R4S            =       NO      REPL OTF      =       NO
    DIAG METHOD    =      SEM      FOLLOW ROOT   =        0
    PRECONDITIONER = DAVIDSON      UPDATE        = DAVIDSON
    S              =   0.0000      Ms0           =      YES
    GUESS VECTOR   =  H0BLOCK      OPENTYPE      =     NONE
    COLLAPSE SIZE  =        1      HD AVG        = EVANGELISTI
    MAX NUM VECS   =       25      REF SYM       =     AUTO
    IOPEN        =       NO

    EX ALLOW       =  1  1 
    STATE AVERAGE  =  0(1.00) 

   ==> CI Orbital and Space information <==

    RAS1 LVL      =        7      A RAS3 MAX    =        2
    RAS1 MIN      =       14      B RAS3 MAX    =        2
    A RAS1 LVL    =        7      RAS4 LVL      =       10
    A RAS1 MIN    =        6      A RAS4 MAX    =        0
    A RAS1 MAX    =        8      B RAS4 MAX    =        0
    B RAS1 LVL    =        7      RAS4 MAX      =        0
    B RAS1 MIN    =        6      A RAS34 MAX   =        2
    B RAS1 MAX    =        8      B RAS34 MAX   =        2
    RAS3 LVL      =        8      RAS34 MAX     =        2
    RAS3 MAX      =        2
   ------------------------------------
               Space    Total     A
   ------------------------------------
                 Nso       10    10
                 Nmo       10    10
               Ndocc        8     8
               Nsocc        0     0
   ------------------------------------
              CI Spaces
   ------------------------------------
        Dropped DOCC        0     0
                RAS1        8     8
                RAS2        0     0
                RAS3        2     2
                RAS4        0     0
      Active (total)       10    10
        Dropped UOCC        0     0
   ------------------------------------

   ==> Setting up CI strings <==

    There are 45 alpha and 45 beta strings
    The CI space requires 345 (3.45E+02) determinants and 6 blocks

   ==> Transforming CI integrals <==

	Presorting SO-basis two-electron integrals.
	Sorting File: SO Ints (nn|nn) nbuckets = 1
	Transforming the one-electron integrals and constructing Fock matrices
	Starting first half-transformation.
	Sorting half-transformed integrals.
	First half integral transformation complete.
	Starting second half-transformation.
	Two-electron integral transformation complete.

   ==> Starting CI iterations <==

    H0 Block Eigenvalue = -147.70585496

    Simultaneous Expansion Method (Block Davidson Method)
    Using 1 initial trial vectors

(sem_iter): H0block_->H0b_diag[1][0] - H0block_->H0b_diag[2][0] = 0.685372 - -0.685372 = 1.370743 > 1.0E-8
     Iter   Root       Total Energy       Delta E      C RMS

   @CI  0:     0   -147.693396938286   -1.7554E+02   4.0697E-13  
    Warning: Norm of correction (root 0) is < 1.0E-13
   @CI  1:     0   -147.693396938286   0.0000E+00   1.3883E-12 c

   ==> Energetics <==

    SCF energy =         -147.551496018796456
    Total CI energy =    -147.693396938286156

   ==> CISD root 0 information <==

    CISD Root 0 energy =  -147.693396938286156

   The 20 most important determinants:

    *   1   -0.939572  (    0,    0)  1AX 2AX 3AX 4AX 5AX 6AX 7AX 8AX 
    *   2    0.243792  (    2,    2)  1AX 2AX 3AX 4AX 5AX 6AX 8AX 9AX 
    *   3    0.173189  (    1,    1)  1AX 2AX 3AX 4AX 5AX 6AX 7AX 9AX 
    *   4    0.065408  (    2,   11)  1AX 2AX 3AX 4AX 5AX 6AA 7AB 8AX 9AA 10AB 
    *   5    0.065408  (   11,    2)  1AX 2AX 3AX 4AX 5AX 6AB 7AA 8AX 9AB 10AA 
    *   6    0.062939  (   11,   11)  1AX 2AX 3AX 4AX 5AX 7AX 8AX 10AX 
    *   7    0.050638  (    0,   24)  1AX 2AX 3AX 4AX 5AX 6AA 7AA 8AX 9AB 10AB 
    *   8    0.050638  (   24,    0)  1AX 2AX 3AX 4AX 5AX 6AB 7AB 8AX 9AA 10AA 
    *   9   -0.041789  (    4,    4)  1AX 2AX 3AX 4AX 6AX 7AX 8AX 9AX 
    *  10    0.034213  (    5,    5)  1AX 2AX 3AX 5AX 6AX 7AX 8AX 9AX 
    *  11    0.031626  (    2,   14)  1AX 2AX 3AA 4AX 5AX 6AX 7AB 8AX 9AA 10AB 
    *  12    0.031626  (   14,    2)  1AX 2AX 3AB 4AX 5AX 6AX 7AA 8AX 9AB 10AA 
    *  13    0.024563  (   14,   14)  1AX 2AX 4AX 5AX 6AX 7AX 8AX 10AX 
    *  14    0.023532  (   11,   14)  1AX 2AX 3AA 4AX 5AX 6AB 7AX 8AX 10AX 
    *  15    0.023532  (   14,   11)  1AX 2AX 3AB 4AX 5AX 6AA 7AX 8AX 10AX 
    *  16    0.021741  (    6,   10)  1AX 2AX 3AB 4AX 5AX 6AX 7AA 8AX 9AA 10AB 
    *  17    0.021741  (   10,    6)  1AX 2AX 3AA 4AX 5AX 6AX 7AB 8AX 9AB 10AA 
    *  18    0.020935  (   13,   13)  1AX 2AX 3AX 5AX 6AX 7AX 8AX 10AX 
    *  19    0.019413  (    9,    9)  1AX 2AX 3AX 4AX 5AX 6AX 7AX 10AX 
    *  20    0.018130  (    3,    3)  1AX 2AX 3AX 4AX 5AX 7AX 8AX 9AX 

		 "A good bug is a dead bug" 

			 - Starship Troopers

		 "I didn't write FORTRAN.  That's the problem."

			 - Edward Valeev

*** tstart() called on trurls-machine
*** at Thu Mar  5 11:20:57 2020

   => Loading Basis Set <=

    Name: STO-3G
    Role: ORBITAL
    Keyword: BASIS
    atoms 1-2 entry O          line    81 file /Users/teague/anaconda3/envs/gen_env/share/psi4/basis/sto-3g.gbs 


         ---------------------------------------------------------
                                   SCF
               by Justin Turney, Rob Parrish, Andy Simmonett
                          and Daniel G. A. Smith
                              RHF Reference
                        1 Threads,   7629 MiB Core
         ---------------------------------------------------------

  ==> Geometry <==

    Molecular point group: c1
    Full point group: D_inf_h

    Geometry (in Angstrom), charge = 0, multiplicity = 1:

       Center              X                  Y                   Z               Mass       
    ------------   -----------------  -----------------  -----------------  -----------------
         O           -0.608000000000     0.000000000000     0.000000000000    15.994914619570
         O            0.608000000000     0.000000000000     0.000000000000    15.994914619570

  Running in c1 symmetry.

  Rotational constants: A = ************  B =      1.42553  C =      1.42553 [cm^-1]
  Rotational constants: A = ************  B =  42736.41805  C =  42736.41805 [MHz]
  Nuclear repulsion =   27.851432140526317

  Charge       = 0
  Multiplicity = 1
  Electrons    = 16
  Nalpha       = 8
  Nbeta        = 8

  ==> Algorithm <==

  SCF Algorithm Type is PK.
  DIIS enabled.
  MOM disabled.
  Fractional occupation disabled.
  Guess Type is SAD.
  Energy threshold   = 1.00e-06
  Density threshold  = 1.00e-06
  Integral threshold = 0.00e+00

  ==> Primary Basis <==

  Basis Set: STO-3G
    Blend: STO-3G
    Number of shells: 6
    Number of basis function: 10
    Number of Cartesian functions: 10
    Spherical Harmonics?: true
    Max angular momentum: 1

  ==> Pre-Iterations <==

   -------------------------------------------------------
    Irrep   Nso     Nmo     Nalpha   Nbeta   Ndocc  Nsocc
   -------------------------------------------------------
     A         10      10       0       0       0       0
   -------------------------------------------------------
    Total      10      10       8       8       8       0
   -------------------------------------------------------

  ==> Integral Setup <==

  Using in-core PK algorithm.
   Calculation information:
      Number of atoms:                   2
      Number of AO shells:               6
      Number of primitives:             18
      Number of atomic orbitals:        10
      Number of basis functions:        10

      Integral cutoff                 1.00e-12
      Number of threads:                 1

  Performing in-core PK
  Using 3080 doubles for integral storage.
  We computed 230 shell quartets total.
  Whereas there are 231 unique shell quartets.

  ==> DiskJK: Disk-Based J/K Matrices <==

    J tasked:                  Yes
    K tasked:                  Yes
    wK tasked:                  No
    Memory [MiB]:             5722
    Schwarz Cutoff:          1E-12

    OpenMP threads:              1

  Minimum eigenvalue in the overlap matrix is 3.6562966003E-01.
  Using Symmetric Orthogonalization.

  SCF Guess: Superposition of Atomic Densities via on-the-fly atomic UHF.

  ==> Iterations <==

                        Total Energy        Delta E     RMS |[F,P]|

   @RHF iter SAD:  -146.44456135262459   -1.46445e+02   0.00000e+00 
   @RHF iter   1:  -147.53860776617827   -1.09405e+00   1.35787e-02 DIIS
   @RHF iter   2:  -147.55077598264000   -1.21682e-02   3.09024e-03 DIIS
   @RHF iter   3:  -147.55149399383143   -7.18011e-04   1.86038e-04 DIIS
   @RHF iter   4:  -147.55149601876914   -2.02494e-06   6.14945e-07 DIIS
   @RHF iter   5:  -147.55149601879648   -2.73417e-11   1.70189e-09 DIIS
  Energy and wave function converged.


  ==> Post-Iterations <==

    Orbital Energies [Eh]
    ---------------------

    Doubly Occupied:                                                      

       1A    -20.423684     2A    -20.423058     3A     -1.546621  
       4A     -0.994652     5A     -0.638037     6A     -0.579469  
       7A     -0.513598     8A     -0.332567  

    Virtual:                                                              

       9A      0.185626    10A      0.720397  

    Final Occupation by Irrep:
              A 
    DOCC [     8 ]

  @RHF Final Energy:  -147.55149601879648

   => Energetics <=

    Nuclear Repulsion Energy =             27.8514321405263168
    One-Electron Energy =                -259.9024854834665348
    Two-Electron Energy =                  84.4995573241437370
    Total Energy =                       -147.5514960187964562

Computation Completed


Properties will be evaluated at   0.000000,   0.000000,   0.000000 [a0]

Properties computed using the SCF density matrix

  Nuclear Dipole Moment: [e a0]
     X:     0.0000      Y:     0.0000      Z:     0.0000

  Electronic Dipole Moment: [e a0]
     X:    -0.0000      Y:     0.0000      Z:     0.0000

  Dipole Moment: [e a0]
     X:    -0.0000      Y:     0.0000      Z:     0.0000     Total:     0.0000

  Dipole Moment: [D]
     X:    -0.0000      Y:     0.0000      Z:     0.0000     Total:     0.0000


*** tstop() called on trurls-machine at Thu Mar  5 11:20:57 2020
Module time:
	user time   =       0.13 seconds =       0.00 minutes
	system time =       0.01 seconds =       0.00 minutes
	total time  =          0 seconds =       0.00 minutes
Total time:
	user time   =       0.76 seconds =       0.01 minutes
	system time =       0.06 seconds =       0.00 minutes
	total time  =          1 seconds =       0.02 minutes
 MINTS: Wrapper to libmints.
   by Justin Turney

   Calculation information:
      Number of threads:                 1
      Number of atoms:                   2
      Number of AO shells:               6
      Number of SO shells:               6
      Number of primitives:             18
      Number of atomic orbitals:        10
      Number of basis functions:        10

      Number of irreps:                  1
      Integral cutoff                 0.00e+00
      Number of functions per irrep: [  10 ]

 OEINTS: Overlap, kinetic, potential, dipole, and quadrupole integrals
         stored in file 35.

      Computing two-electron integrals...done
      Computed 512 non-zero two-electron integrals.
        Stored in file 33.


         ---------------------------------------------------------
                          Configuration Interaction
                            (a 'D E T C I' module)

                 C. David Sherrill, Daniel G. A. Smith, and
                              Matt L. Leininger
         ---------------------------------------------------------


   ==> Parameters <==

    EX LEVEL       =       16      H0 BLOCKSIZE  =     1000
    VAL EX LEVEL   =        0      H0 GUESS SIZE =     1000
    H0COUPLINGSIZE =        0      H0 COUPLING   =       NO
    MAXITER        =       24      NUM PRINT     =       20
    NUM ROOTS      =        1      ICORE         =        1
    PRINT LVL      =        1      FCI           =      YES
    R CONV         = 1.00e-06      MIXED         =      YES
    E CONV         = 1.00e-06      MIXED4        =      YES
    R4S            =       NO      REPL OTF      =       NO
    DIAG METHOD    =      SEM      FOLLOW ROOT   =        0
    PRECONDITIONER = DAVIDSON      UPDATE        = DAVIDSON
    S              =   0.0000      Ms0           =      YES
    GUESS VECTOR   =  H0BLOCK      OPENTYPE      =     NONE
    COLLAPSE SIZE  =        1      HD AVG        = EVANGELISTI
    MAX NUM VECS   =       25      REF SYM       =     AUTO
    IOPEN        =       NO

    EX ALLOW       =  1  1  1  1  1  1  1  1  1  1  1  1  1  1  1  1 
    STATE AVERAGE  =  0(1.00) 

   ==> CI Orbital and Space information <==

   ------------------------------------
               Space    Total     A
   ------------------------------------
                 Nso       10    10
                 Nmo       10    10
               Ndocc        8     8
               Nsocc        0     0
   ------------------------------------
              CI Spaces
   ------------------------------------
        Dropped DOCC        0     0
              Active       10    10
        Dropped UOCC        0     0
   ------------------------------------

   ==> Setting up CI strings <==

    There are 45 alpha and 45 beta strings
    The CI space requires 2025 (2.02E+03) determinants and 1 blocks

   ==> Transforming CI integrals <==

	Presorting SO-basis two-electron integrals.
	Sorting File: SO Ints (nn|nn) nbuckets = 1
	Transforming the one-electron integrals and constructing Fock matrices
	Starting first half-transformation.
	Sorting half-transformed integrals.
	First half integral transformation complete.
	Starting second half-transformation.
	Two-electron integral transformation complete.

   ==> Starting CI iterations <==

    H0 Block Eigenvalue = -147.74640904

    Simultaneous Expansion Method (Block Davidson Method)
    Using 1 initial trial vectors

(sem_iter): H0block_->H0b_diag[1][0] - H0block_->H0b_diag[2][0] = 0.682601 - -0.682601 = 1.365202 > 1.0E-8
     Iter   Root       Total Energy       Delta E      C RMS

   @CI  0:     0   -147.708573721210   -1.7556E+02   4.3882E-02  
   @CI  1:     0   -147.708632638972   -5.8918E-05   2.9071E-03  
   @CI  2:     0   -147.708632908189   -2.6922E-07   1.5047E-04  
   @CI  3:     0   -147.708632910847   -2.6581E-09   6.8689E-05  
   @CI  4:     0   -147.708632911647   -8.0036E-10   4.2898E-05  
   @CI  5:     0   -147.708632912860   -1.2132E-09   1.0235E-04  
   @CI  6:     0   -147.708632915576   -2.7159E-09   7.5010E-05  
   @CI  7:     0   -147.708632916390   -8.1360E-10   3.8324E-05  
   @CI  8:     0   -147.708632916525   -1.3497E-10   8.3227E-06  
   @CI  9:     0   -147.708632916535   -1.0601E-11   3.1359E-06  
   @CI 10:     0   -147.708632916536   -7.6739E-13   1.0233E-06  
    Warning: Norm of correction (root 0) is < 1.0E-13
   @CI 11:     0   -147.708632916536   -1.9895E-13   2.8716E-07 c

   ==> Energetics <==

    SCF energy =         -147.551496018796456
    Total CI energy =    -147.708632916536345

   ==> FCI root 0 information <==

    FCI Root 0 energy =  -147.708632916536345

   The 20 most important determinants:

    *   1    0.675008  (    1,    1)  1AX 2AX 3AX 4AX 5AX 6AX 7AX 9AX 
    *   2   -0.675008  (    0,    0)  1AX 2AX 3AX 4AX 5AX 6AX 7AX 8AX 
    *   3    0.169264  (    2,    2)  1AX 2AX 3AX 4AX 5AX 6AX 8AX 9AX 
    *   4   -0.169264  (    4,    4)  1AX 2AX 3AX 4AX 6AX 7AX 8AX 9AX 
    *   5    0.051834  (    2,   11)  1AX 2AX 3AX 4AX 5AX 6AA 7AB 8AX 9AA 10AB 
    *   6    0.051834  (   11,    2)  1AX 2AX 3AX 4AX 5AX 6AB 7AA 8AX 9AB 10AA 
    *   7    0.051834  (    4,   18)  1AX 2AX 3AX 4AX 5AB 6AA 7AX 8AA 9AX 10AB 
    *   8    0.051834  (   18,    4)  1AX 2AX 3AX 4AX 5AA 6AB 7AX 8AB 9AX 10AA 
    *   9    0.048599  (   11,   11)  1AX 2AX 3AX 4AX 5AX 7AX 8AX 10AX 
    *  10   -0.048599  (   18,   18)  1AX 2AX 3AX 4AX 5AX 7AX 9AX 10AX 
    *  11   -0.040862  (    1,   30)  1AX 2AX 3AX 4AX 5AA 6AA 7AX 8AB 9AX 10AB 
    *  12   -0.040862  (   30,    1)  1AX 2AX 3AX 4AX 5AB 6AB 7AX 8AA 9AX 10AA 
    *  13    0.040862  (    0,   24)  1AX 2AX 3AX 4AX 5AX 6AA 7AA 8AX 9AB 10AB 
    *  14    0.040862  (   24,    0)  1AX 2AX 3AX 4AX 5AX 6AB 7AB 8AX 9AA 10AA 
    *  15    0.026766  (   30,   30)  1AX 2AX 3AX 4AX 7AX 8AX 9AX 10AX 
    *  16   -0.026766  (   24,   24)  1AX 2AX 3AX 4AX 5AX 8AX 9AX 10AX 
    *  17    0.023436  (    4,   21)  1AX 2AX 3AA 4AX 5AB 6AX 7AX 8AA 9AX 10AB 
    *  18    0.023436  (   21,    4)  1AX 2AX 3AB 4AX 5AA 6AX 7AX 8AB 9AX 10AA 
    *  19    0.023436  (    2,   14)  1AX 2AX 3AA 4AX 5AX 6AX 7AB 8AX 9AA 10AB 
    *  20    0.023436  (   14,    2)  1AX 2AX 3AB 4AX 5AX 6AX 7AA 8AX 9AB 10AA 

		 "A good bug is a dead bug" 

			 - Starship Troopers

		 "I didn't write FORTRAN.  That's the problem."

			 - Edward Valeev

*** tstart() called on trurls-machine
*** at Thu Mar  5 11:20:57 2020

   => Loading Basis Set <=

    Name: STO-3G
    Role: ORBITAL
    Keyword: BASIS
    atoms 1-2 entry O          line    81 file /Users/teague/anaconda3/envs/gen_env/share/psi4/basis/sto-3g.gbs 


         ---------------------------------------------------------
                                   SCF
               by Justin Turney, Rob Parrish, Andy Simmonett
                          and Daniel G. A. Smith
                              RHF Reference
                        1 Threads,   7629 MiB Core
         ---------------------------------------------------------

  ==> Geometry <==

    Molecular point group: c1
    Full point group: D_inf_h

    Geometry (in Angstrom), charge = 0, multiplicity = 1:

       Center              X                  Y                   Z               Mass       
    ------------   -----------------  -----------------  -----------------  -----------------
         O           -0.608000000000     0.000000000000     0.000000000000    15.994914619570
         O            0.608000000000     0.000000000000     0.000000000000    15.994914619570

  Running in c1 symmetry.

  Rotational constants: A = ************  B =      1.42553  C =      1.42553 [cm^-1]
  Rotational constants: A = ************  B =  42736.41805  C =  42736.41805 [MHz]
  Nuclear repulsion =   27.851432140526317

  Charge       = 0
  Multiplicity = 1
  Electrons    = 16
  Nalpha       = 8
  Nbeta        = 8

  ==> Algorithm <==

  SCF Algorithm Type is PK.
  DIIS enabled.
  MOM disabled.
  Fractional occupation disabled.
  Guess Type is SAD.
  Energy threshold   = 1.00e-06
  Density threshold  = 1.00e-06
  Integral threshold = 0.00e+00

  ==> Primary Basis <==

  Basis Set: STO-3G
    Blend: STO-3G
    Number of shells: 6
    Number of basis function: 10
    Number of Cartesian functions: 10
    Spherical Harmonics?: true
    Max angular momentum: 1

  ==> Pre-Iterations <==

   -------------------------------------------------------
    Irrep   Nso     Nmo     Nalpha   Nbeta   Ndocc  Nsocc
   -------------------------------------------------------
     A         10      10       0       0       0       0
   -------------------------------------------------------
    Total      10      10       8       8       8       0
   -------------------------------------------------------

  ==> Integral Setup <==

  Using in-core PK algorithm.
   Calculation information:
      Number of atoms:                   2
      Number of AO shells:               6
      Number of primitives:             18
      Number of atomic orbitals:        10
      Number of basis functions:        10

      Integral cutoff                 1.00e-12
      Number of threads:                 1

  Performing in-core PK
  Using 3080 doubles for integral storage.
  We computed 230 shell quartets total.
  Whereas there are 231 unique shell quartets.

  ==> DiskJK: Disk-Based J/K Matrices <==

    J tasked:                  Yes
    K tasked:                  Yes
    wK tasked:                  No
    Memory [MiB]:             5722
    Schwarz Cutoff:          1E-12

    OpenMP threads:              1

  Minimum eigenvalue in the overlap matrix is 3.6562966003E-01.
  Using Symmetric Orthogonalization.

  SCF Guess: Superposition of Atomic Densities via on-the-fly atomic UHF.

  ==> Iterations <==

                        Total Energy        Delta E     RMS |[F,P]|

   @RHF iter SAD:  -146.44456135262459   -1.46445e+02   0.00000e+00 
   @RHF iter   1:  -147.53860776617827   -1.09405e+00   1.35787e-02 DIIS
   @RHF iter   2:  -147.55077598264000   -1.21682e-02   3.09024e-03 DIIS
   @RHF iter   3:  -147.55149399383143   -7.18011e-04   1.86038e-04 DIIS
   @RHF iter   4:  -147.55149601876914   -2.02494e-06   6.14945e-07 DIIS
   @RHF iter   5:  -147.55149601879648   -2.73417e-11   1.70189e-09 DIIS
  Energy and wave function converged.


  ==> Post-Iterations <==

    Orbital Energies [Eh]
    ---------------------

    Doubly Occupied:                                                      

       1A    -20.423684     2A    -20.423058     3A     -1.546621  
       4A     -0.994652     5A     -0.638037     6A     -0.579469  
       7A     -0.513598     8A     -0.332567  

    Virtual:                                                              

       9A      0.185626    10A      0.720397  

    Final Occupation by Irrep:
              A 
    DOCC [     8 ]

  @RHF Final Energy:  -147.55149601879648

   => Energetics <=

    Nuclear Repulsion Energy =             27.8514321405263168
    One-Electron Energy =                -259.9024854834665348
    Two-Electron Energy =                  84.4995573241437370
    Total Energy =                       -147.5514960187964562

Computation Completed


Properties will be evaluated at   0.000000,   0.000000,   0.000000 [a0]

Properties computed using the SCF density matrix

  Nuclear Dipole Moment: [e a0]
     X:     0.0000      Y:     0.0000      Z:     0.0000

  Electronic Dipole Moment: [e a0]
     X:    -0.0000      Y:     0.0000      Z:     0.0000

  Dipole Moment: [e a0]
     X:    -0.0000      Y:     0.0000      Z:     0.0000     Total:     0.0000

  Dipole Moment: [D]
     X:    -0.0000      Y:     0.0000      Z:     0.0000     Total:     0.0000


*** tstop() called on trurls-machine at Thu Mar  5 11:20:57 2020
Module time:
	user time   =       0.12 seconds =       0.00 minutes
	system time =       0.00 seconds =       0.00 minutes
	total time  =          0 seconds =       0.00 minutes
Total time:
	user time   =       1.29 seconds =       0.02 minutes
	system time =       0.10 seconds =       0.00 minutes
	total time  =          1 seconds =       0.02 minutes
 MINTS: Wrapper to libmints.
   by Justin Turney

   Calculation information:
      Number of threads:                 1
      Number of atoms:                   2
      Number of AO shells:               6
      Number of SO shells:               6
      Number of primitives:             18
      Number of atomic orbitals:        10
      Number of basis functions:        10

      Number of irreps:                  1
      Integral cutoff                 0.00e+00
      Number of functions per irrep: [  10 ]

 OEINTS: Overlap, kinetic, potential, dipole, and quadrupole integrals
         stored in file 35.

      Computing two-electron integrals...done
      Computed 512 non-zero two-electron integrals.
        Stored in file 33.


*** tstart() called on trurls-machine
*** at Thu Mar  5 11:20:57 2020


	Wfn Parameters:
	--------------------
	Wavefunction         = CCSD
	Number of irreps     = 1
	Number of MOs        = 10
	Number of active MOs = 10
	AO-Basis             = NONE
	Semicanonical        = false
	Reference            = RHF
	Print Level          = 1

	IRREP	# MOs	# FZDC	# DOCC	# SOCC	# VIRT	# FZVR
	-----	-----	------	------	------	------	------
	 A	   10	    0	    8	    0	    2	    0
	Transforming integrals...
	IWL integrals will be deleted.
	(OO|OO)...
	Presorting SO-basis two-electron integrals.
	Sorting File: SO Ints (nn|nn) nbuckets = 1
	Transforming the one-electron integrals and constructing Fock matrices
	Starting first half-transformation.
	Sorting half-transformed integrals.
	First half integral transformation complete.
	Starting second half-transformation.
	Two-electron integral transformation complete.
	(OO|OV)...
	Starting second half-transformation.
	Two-electron integral transformation complete.
	(OO|VV)...
	Starting second half-transformation.
	Two-electron integral transformation complete.
	(OV|OO)...
	Starting first half-transformation.
	Sorting half-transformed integrals.
	First half integral transformation complete.
	Starting second half-transformation.
	Two-electron integral transformation complete.
	(OV|OV)...
	Starting second half-transformation.
	Two-electron integral transformation complete.
	(OV|VV)...
	Starting second half-transformation.
	Two-electron integral transformation complete.
	(VV|OO)...
	Starting first half-transformation.
	Sorting half-transformed integrals.
	First half integral transformation complete.
	Starting second half-transformation.
	Two-electron integral transformation complete.
	(VV|OV)...
	Starting second half-transformation.
	Two-electron integral transformation complete.
	(VV|VV)...
	Starting second half-transformation.
	Two-electron integral transformation complete.
	Frozen core energy     =      0.00000000000000

	Size of irrep 0 of <ab|cd> integrals:      0.000 (MW) /      0.000 (MB)
	Total:                                     0.000 (MW) /      0.000 (MB)

	Size of irrep 0 of <ia|bc> integrals:      0.000 (MW) /      0.001 (MB)
	Total:                                     0.000 (MW) /      0.001 (MB)

	Size of irrep 0 of tijab amplitudes:       0.000 (MW) /      0.002 (MB)
	Total:                                     0.000 (MW) /      0.002 (MB)

	Nuclear Rep. energy          =     27.85143214052632
	SCF energy                   =   -147.55149601879648
	One-electron energy          =   -259.90248545937203
	Two-electron energy          =     84.49955730004930
	Reference energy             =   -147.55149601879640

*** tstop() called on trurls-machine at Thu Mar  5 11:20:57 2020
Module time:
	user time   =       0.01 seconds =       0.00 minutes
	system time =       0.04 seconds =       0.00 minutes
	total time  =          0 seconds =       0.00 minutes
Total time:
	user time   =       1.30 seconds =       0.02 minutes
	system time =       0.15 seconds =       0.00 minutes
	total time  =          1 seconds =       0.02 minutes
            **************************
            *                        *
            *        CCENERGY        *
            *                        *
            **************************

    Nuclear Rep. energy (wfn)     =   27.851432140526317
    SCF energy          (wfn)     = -147.551496018796485
    Reference energy    (file100) = -147.551496018796399

    Input parameters:
    -----------------
    Wave function   =     CCSD
    Reference wfn   =     RHF
    Brueckner       =     No
    Memory (Mbytes) =     8000.0
    Maxiter         =   1000000
    R_Convergence   =     1.0e-06
    E_Convergence   =     1.0e-06
    Restart         =     Yes
    DIIS            =     Yes
    AO Basis        =     NONE
    ABCD            =     NEW
    Cache Level     =     2
    Cache Type      =     LOW
    Print Level     =     1
    Num. of threads =     1
    # Amps to Print =     1000000
    Print MP2 Amps? =     No
    Analyze T2 Amps =     No
    Print Pair Ener =     No
    Local CC        =     No
    SCS-MP2         =     False
    SCSN-MP2        =     False
    SCS-CCSD        =     False

MP2 correlation energy -0.1277668069412070
                Solving CC Amplitude Equations
                ------------------------------
  Iter             Energy              RMS        T1Diag      D1Diag    New D1Diag    D2Diag
  ----     ---------------------    ---------   ----------  ----------  ----------   --------
     0        -0.127766806941207    0.000e+00    0.000000    0.000000    0.000000    0.205672
     1        -0.137533685207238    4.802e-02    0.003015    0.012061    0.012061    0.245120
     2        -0.143699426771813    2.460e-02    0.003942    0.015769    0.015769    0.281672
     3        -0.144933515415493    9.074e-03    0.003610    0.014438    0.014438    0.292844
     4        -0.145105970840487    7.084e-03    0.003453    0.013813    0.013813    0.296177
     5        -0.145954499676407    6.608e-03    0.003508    0.014034    0.014034    0.337582
     6        -0.146812144065921    3.309e-03    0.003526    0.014105    0.014105    0.388521
     7        -0.146661369467000    7.505e-04    0.003509    0.014037    0.014037    0.390241
     8        -0.146740492332667    3.000e-04    0.003493    0.013973    0.013973    0.393094
     9        -0.146732683111287    6.823e-05    0.003497    0.013986    0.013986    0.392408
    10        -0.146737050249612    1.840e-05    0.003497    0.013988    0.013988    0.392693
    11        -0.146736611439908    2.772e-06    0.003497    0.013988    0.013988    0.392660
    12        -0.146736537608113    7.143e-07    0.003497    0.013988    0.013988    0.392659

    Iterations converged.


    Largest TIA Amplitudes:
              3   1         0.0139881458
              0   1         0.0000220720

    Largest TIjAb Amplitudes:
      6   6   0   0        -0.2656835984
      7   7   0   0        -0.2641500589
      5   6   1   0         0.0717379132
      6   5   0   1         0.0717379132
      4   4   0   0         0.0711148403
      5   5   1   1        -0.0702525862
      2   6   1   0        -0.0345274213
      6   2   0   1        -0.0345274213
      3   3   0   0        -0.0330845264
      2   2   1   1        -0.0265957650
      2   5   1   1         0.0260138804
      5   2   1   1         0.0260138804
      2   6   0   1        -0.0232560486
      6   2   1   0        -0.0232560486
      3   3   1   1        -0.0229366345
      7   7   1   1        -0.0210457902
      5   5   0   0        -0.0199968559
      6   6   1   1        -0.0166474897
      5   6   0   1         0.0166202592
      6   5   1   0         0.0166202592
      4   4   1   1        -0.0139312336
      2   2   0   0        -0.0093490621
      2   5   0   0        -0.0033539401
      5   2   0   0        -0.0033539401
      0   3   1   1         0.0007634388
      3   0   1   1         0.0007634388
      0   0   1   1        -0.0005953520
      1   1   1   1        -0.0005762457
      1   2   1   1         0.0005664329
      2   1   1   1         0.0005664329
      0   3   0   0         0.0005392715
      3   0   0   0         0.0005392715
      1   6   0   1         0.0004501736
      6   1   1   0         0.0004501736
      1   2   0   0         0.0003993071
      2   1   0   0         0.0003993071
      1   5   1   1         0.0002102875
      5   1   1   1         0.0002102875
      0   0   0   0        -0.0001682900
      1   1   0   0        -0.0001582262
      1   5   0   0         0.0001475993
      5   1   0   0         0.0001475993
      1   6   1   0        -0.0001201242
      6   1   0   1        -0.0001201242

    SCF energy       (wfn)                    = -147.551496018796485
    Reference energy (file100)                = -147.551496018796399

    Opposite-spin MP2 correlation energy      =   -0.102235891873726
    Same-spin MP2 correlation energy          =   -0.025530915067481
    MP2 correlation energy                    =   -0.127766806941207
      * MP2 total energy                      = -147.679262825737595

    Opposite-spin CCSD correlation energy     =   -0.128706236575677
    Same-spin CCSD correlation energy         =   -0.018030301032436
    CCSD correlation energy                   =   -0.146736537608113
      * CCSD total energy                     = -147.698232556404520


    Psi4 stopped on: Thursday, 05 March 2020 11:20AM
    Psi4 wall time for execution: 0:00:02.53

*** Psi4 exiting successfully. Buy a developer a beer!
