
    -----------------------------------------------------------------------
          Psi4: An Open-Source Ab Initio Electronic Structure Package
                               Psi4 1.3.2 release

                         Git: Rev {HEAD} ecbda83 


    R. M. Parrish, L. A. Burns, D. G. A. Smith, A. C. Simmonett,
    A. E. DePrince III, E. G. Hohenstein, U. Bozkaya, A. Yu. Sokolov,
    R. Di Remigio, R. M. Richard, J. F. Gonthier, A. M. James,
    H. R. McAlexander, A. Kumar, M. Saitow, X. Wang, B. P. Pritchard,
    P. Verma, H. F. Schaefer III, K. Patkowski, R. A. King, E. F. Valeev,
    F. A. Evangelista, J. M. Turney, T. D. Crawford, and C. D. Sherrill,
    J. Chem. Theory Comput. 13(7) pp 3185--3197 (2017).
    (doi: 10.1021/acs.jctc.7b00174)


                         Additional Contributions by
    P. Kraus, H. Kruse, M. H. Lechner, M. C. Schieber, R. A. Shaw,
    A. Alenaizan, R. Galvelis, Z. L. Glick, S. Lehtola, and J. P. Misiewicz

    -----------------------------------------------------------------------


    Psi4 started on: Thursday, 05 March 2020 05:30PM

    Process ID: 57831
    Host:       trurls-machine
    PSIDATADIR: /Users/teague/anaconda3/envs/gen_env/share/psi4
    Memory:     500.0 MiB
    Threads:    1
    
  ==> Input File <==

--------------------------------------------------------------------------
"""This is a template for psi4 input format."""
import numpy
import sys

from openfermion.config import *
from openfermion.hamiltonians import MolecularData
from openfermion.ops import general_basis_change

from numpy import array

sys.path.append('/Users/teague/.local/lib/python3.7/site-packages/openfermionpsi4')
from _psi4_conversion_functions import *


# Set memory that job can use in megabytes.
memory 8000 mb

# Initialize molecular data.
_description = 'NIST'
if _description == 'None':
    _description = None
molecule = MolecularData([('C', (0.6747, 0.991, 0.8647)), ('C', (1.7706, 1.9676, 1.1832)), ('C', (3.0741, 1.6868, 1.1862)), ('H', (-0.0233, 0.8893, 1.7066)), ('H', (0.0805, 1.3279, 0.0044)), ('H', (1.076, -0.0014, 0.6333)), ('H', (1.4495, 2.9811, 1.4286)), ('H', (3.8219, 2.4382, 1.4255)), ('H', (3.4446, 0.6913, 0.9487))],
                         'sto-3g',
                         1,
                         0,
                         _description,
                          filename='molecule_data/Propene_sto-3g_singlet_NIST')

# Set molecular geometry and symmetry.
molecule mol {
C 0.6747 0.991 0.8647
C 1.7706 1.9676 1.1832
C 3.0741 1.6868 1.1862
H -0.0233 0.8893 1.7066
H 0.0805 1.3279 0.0044
H 1.076 -0.0014 0.6333
H 1.4495 2.9811 1.4286
H 3.8219 2.4382 1.4255
H 3.4446 0.6913 0.9487
symmetry c1
}
mol.set_multiplicity(1)
mol.set_molecular_charge(0)

# Set reference and guess.
if molecule.multiplicity == 1:
    set reference rhf
    set guess sad
else:
    set reference rohf
    set guess gwh

# Set global parameters of calculation.
set globals {
    basis sto-3g
    freeze_core false
    fail_on_maxiter True
    df_scf_guess false
    opdm true
    tpdm true
    soscf false
    scf_type pk
    maxiter 1e6
    num_amps_print 1e6
    r_convergence 1e-6
    d_convergence 1e-6
    e_convergence 1e-6
    ints_tolerance EQUALITY_TOLERANCE
    damping_percentage 0
}

# Run self-consistent field (SCF) calculation.
if True:
    try:
        hf_energy, hf_wavefunction = energy('scf', return_wfn=True)
        if False:
            print('Hartree-Fock energy for {} ({} electrons) is {}.'.format(
                molecule.name, molecule.n_electrons, hf_energy))
    except:
        if False:
            print('WARNING: SCF calculation failed.')
        else:
            raise
    finally:
        # Get orbitals and Fock matrix.
        molecule.hf_energy = hf_energy
        molecule.nuclear_repulsion = mol.nuclear_repulsion_energy()
        molecule.canonical_orbitals = numpy.asarray(hf_wavefunction.Ca())
        molecule.overlap_integrals = numpy.asarray(hf_wavefunction.S())
        molecule.n_orbitals = molecule.canonical_orbitals.shape[0]
        molecule.n_qubits = 2 * molecule.n_orbitals
        molecule.orbital_energies = numpy.asarray(hf_wavefunction.epsilon_a())
        molecule.fock_matrix = numpy.asarray(hf_wavefunction.Fa())

        # Get integrals using MintsHelper.
        mints = MintsHelper(hf_wavefunction.basisset())
        molecule.one_body_integrals = general_basis_change(
            numpy.asarray(mints.ao_kinetic()), molecule.canonical_orbitals, (1, 0))
        molecule.one_body_integrals += general_basis_change(
            numpy.asarray(mints.ao_potential()), molecule.canonical_orbitals, (1, 0))
        two_body_integrals = numpy.asarray(mints.ao_eri())
        two_body_integrals.reshape((molecule.n_orbitals, molecule.n_orbitals,
                                    molecule.n_orbitals, molecule.n_orbitals))
        two_body_integrals = numpy.einsum('psqr', two_body_integrals)
        two_body_integrals = general_basis_change(
            two_body_integrals, molecule.canonical_orbitals, (1, 1, 0, 0))
        molecule.two_body_integrals = two_body_integrals
        molecule.save()


# Perform MP2 energy calculation if there are at least two electrons.
if True:
    try:
        assert molecule.n_electrons > 1
        mp2_energy = energy('mp2')
        if False:
            print('MP2 energy for {} ({} electrons) is {}.'.format(
                molecule.name, molecule.n_electrons, mp2_energy))
    except:
        if False:
            print('WARNING: MP2 calculation failed.')
        else:
            raise
    else:
        molecule.mp2_energy = mp2_energy
        molecule.save()


# Perform configuration interaction singles and doubles (CISD) calculation.
if True:
    set qc_module detci
    try:
        cisd_energy, cisd_wavefunction = energy('cisd', return_wfn=True)
        if False:
            print('CISD energy for {} ({} electrons) is {}.'.format(
                molecule.name, molecule.n_electrons, cisd_energy))
    except:
        if False:
            print('WARNING: CISD calculation failed.')
        else:
            raise
    else:
        # For the functions below, "a" and "b" refer to "up and "down" spins.
        molecule.cisd_energy = cisd_energy

        # Get 1-RDM from CISD calculation.
        cisd_one_rdm_a = numpy.array(cisd_wavefunction.get_opdm(
            0, 0, 'A', True)).reshape(molecule.n_orbitals, molecule.n_orbitals)
        cisd_one_rdm_b = numpy.array(cisd_wavefunction.get_opdm(
            0, 0, 'B', True)).reshape(molecule.n_orbitals, molecule.n_orbitals)

        # Get 2-RDM from CISD calculation.
        cisd_two_rdm_aa = numpy.array(cisd_wavefunction.get_tpdm(
            'AA', False)).reshape(molecule.n_orbitals, molecule.n_orbitals,
                                  molecule.n_orbitals, molecule.n_orbitals)
        cisd_two_rdm_ab = numpy.array(cisd_wavefunction.get_tpdm(
            'AB', False)).reshape(molecule.n_orbitals, molecule.n_orbitals,
                                  molecule.n_orbitals, molecule.n_orbitals)
        cisd_two_rdm_bb = numpy.array(cisd_wavefunction.get_tpdm(
            'BB', False)).reshape(molecule.n_orbitals, molecule.n_orbitals,
                                  molecule.n_orbitals, molecule.n_orbitals)

        # Get overall RDMs.
        cisd_one_rdm, cisd_two_rdm = unpack_spatial_rdm(
            cisd_one_rdm_a, cisd_one_rdm_b, cisd_two_rdm_aa,
            cisd_two_rdm_ab, cisd_two_rdm_bb)

        # Store 1-RDM in molecule file, 2-RDM separately in other file.
        molecule.cisd_one_rdm = cisd_one_rdm
        molecule.cisd_two_rdm = cisd_two_rdm
        molecule.save()


# Perform exact diagonalization.
if True:
    set qc_module detci
    try:
        fci_energy, fci_wavefunction = energy('fci', return_wfn=True)
        if False:
            print('FCI energy for {} ({} electrons) is {}.'.format(
                molecule.name, molecule.n_electrons, fci_energy))
    except:
        if False:
            print('WARNING: FCI calculation failed.')
        else:
            raise
    finally:
        # For the functions below, "a" and "b" refer to "up and "down" spins.
        molecule.fci_energy = fci_energy

        # Get 1-RDM from FCI calculation.
        fci_one_rdm_a = numpy.array(fci_wavefunction.get_opdm(
            0, 0, 'A', True)).reshape(molecule.n_orbitals, molecule.n_orbitals)
        fci_one_rdm_b = numpy.array(fci_wavefunction.get_opdm(
            0, 0, 'B', True)).reshape(molecule.n_orbitals, molecule.n_orbitals)

        # Get 2-RDM from FCI calculation.
        fci_two_rdm_aa = numpy.array(fci_wavefunction.get_tpdm(
            'AA', False)).reshape(molecule.n_orbitals, molecule.n_orbitals,
                                  molecule.n_orbitals, molecule.n_orbitals)
        fci_two_rdm_ab = numpy.array(fci_wavefunction.get_tpdm(
            'AB', False)).reshape(molecule.n_orbitals, molecule.n_orbitals,
                                  molecule.n_orbitals, molecule.n_orbitals)
        fci_two_rdm_bb = numpy.array(fci_wavefunction.get_tpdm(
            'BB', False)).reshape(molecule.n_orbitals, molecule.n_orbitals,
                                  molecule.n_orbitals, molecule.n_orbitals)

        # Get overall RDMs.
        fci_one_rdm, fci_two_rdm = unpack_spatial_rdm(
            fci_one_rdm_a, fci_one_rdm_b,
            fci_two_rdm_aa, fci_two_rdm_ab, fci_two_rdm_bb)

        # Store 1-RDM in molecule file, 2-RDM separately in other file.
        molecule.fci_one_rdm = fci_one_rdm
        molecule.fci_two_rdm = fci_two_rdm
        molecule.save()


# Perform coupled cluster singles and doubles (CCSD) calculation.
if True:
    set qc_module ccenergy
    try:
        ccsd_energy = energy('ccsd')
        if False:
            print('CCSD energy for {} ({} electrons) is {}.'.format(
                molecule.name, molecule.n_electrons, ccsd_energy))
    except:
        if False:
            print('WARNING: CCSD calculation failed.')
        else:
            raise
    else:
        molecule.ccsd_energy = ccsd_energy

        # Merge CC amplitudes into molecule by parsing
        psi_filename = outfile_name()
        single_cc_amplitudes, double_cc_amplitudes = (
            parse_psi4_ccsd_amplitudes(
                2 * molecule.n_orbitals,
                molecule.get_n_alpha_electrons(),
                molecule.get_n_beta_electrons(),
                psi_filename))

        molecule.ccsd_single_amps = single_cc_amplitudes
        molecule.ccsd_double_amps = double_cc_amplitudes
        molecule.save()
--------------------------------------------------------------------------

  Memory set to   7.451 GiB by Python driver.

*** tstart() called on trurls-machine
*** at Thu Mar  5 17:30:28 2020

   => Loading Basis Set <=

    Name: STO-3G
    Role: ORBITAL
    Keyword: BASIS
    atoms 1-3 entry C          line    61 file /Users/teague/anaconda3/envs/gen_env/share/psi4/basis/sto-3g.gbs 
    atoms 4-9 entry H          line    19 file /Users/teague/anaconda3/envs/gen_env/share/psi4/basis/sto-3g.gbs 


         ---------------------------------------------------------
                                   SCF
               by Justin Turney, Rob Parrish, Andy Simmonett
                          and Daniel G. A. Smith
                              RHF Reference
                        1 Threads,   7629 MiB Core
         ---------------------------------------------------------

  ==> Geometry <==

    Molecular point group: c1
    Full point group: C1

    Geometry (in Angstrom), charge = 0, multiplicity = 1:

       Center              X                  Y                   Z               Mass       
    ------------   -----------------  -----------------  -----------------  -----------------
         C           -1.136586429983    -0.534350924464    -0.205636874580    12.000000000000
         C           -0.040686429983     0.442249075536     0.112863125420    12.000000000000
         C            1.262813570017     0.161449075536     0.115863125420    12.000000000000
         H           -1.834586429983    -0.636050924464     0.636263125420     1.007825032230
         H           -1.730786429983    -0.197450924464    -1.065936874580     1.007825032230
         H           -0.735286429983    -1.526750924464    -0.437036874580     1.007825032230
         H           -0.361786429983     1.455749075536     0.358263125420     1.007825032230
         H            2.010613570017     0.912849075536     0.355163125420     1.007825032230
         H            1.633313570017    -0.834050924464    -0.121636874580     1.007825032230

  Running in c1 symmetry.

  Rotational constants: A =      1.56030  B =      0.30838  C =      0.27040 [cm^-1]
  Rotational constants: A =  46776.63800  B =   9245.07024  C =   8106.31048 [MHz]
  Nuclear repulsion =   70.580332475101358

  Charge       = 0
  Multiplicity = 1
  Electrons    = 24
  Nalpha       = 12
  Nbeta        = 12

  ==> Algorithm <==

  SCF Algorithm Type is PK.
  DIIS enabled.
  MOM disabled.
  Fractional occupation disabled.
  Guess Type is SAD.
  Energy threshold   = 1.00e-06
  Density threshold  = 1.00e-06
  Integral threshold = 0.00e+00

  ==> Primary Basis <==

  Basis Set: STO-3G
    Blend: STO-3G
    Number of shells: 15
    Number of basis function: 21
    Number of Cartesian functions: 21
    Spherical Harmonics?: true
    Max angular momentum: 1

  ==> Pre-Iterations <==

   -------------------------------------------------------
    Irrep   Nso     Nmo     Nalpha   Nbeta   Ndocc  Nsocc
   -------------------------------------------------------
     A         21      21       0       0       0       0
   -------------------------------------------------------
    Total      21      21      12      12      12       0
   -------------------------------------------------------

  ==> Integral Setup <==

  Using in-core PK algorithm.
   Calculation information:
      Number of atoms:                   9
      Number of AO shells:              15
      Number of primitives:             45
      Number of atomic orbitals:        21
      Number of basis functions:        21

      Integral cutoff                 1.00e-12
      Number of threads:                 1

  Performing in-core PK
  Using 53592 doubles for integral storage.
  We computed 7138 shell quartets total.
  Whereas there are 7260 unique shell quartets.

  ==> DiskJK: Disk-Based J/K Matrices <==

    J tasked:                  Yes
    K tasked:                  Yes
    wK tasked:                  No
    Memory [MiB]:             5722
    Schwarz Cutoff:          1E-12

    OpenMP threads:              1

  Minimum eigenvalue in the overlap matrix is 1.8848241061E-01.
  Using Symmetric Orthogonalization.

  SCF Guess: Superposition of Atomic Densities via on-the-fly atomic UHF.

  ==> Iterations <==

                        Total Energy        Delta E     RMS |[F,P]|

   @RHF iter SAD:  -112.95561063897364   -1.12956e+02   0.00000e+00 
   @RHF iter   1:  -115.65267428183604   -2.69706e+00   4.10370e-03 DIIS
   @RHF iter   2:  -115.65817832117077   -5.50404e-03   1.27017e-03 DIIS
   @RHF iter   3:  -115.65863844976357   -4.60129e-04   4.66900e-04 DIIS
   @RHF iter   4:  -115.65870843026272   -6.99805e-05   6.62763e-05 DIIS
   @RHF iter   5:  -115.65870971647360   -1.28621e-06   1.27540e-05 DIIS
   @RHF iter   6:  -115.65870979759245   -8.11189e-08   4.54160e-06 DIIS
   @RHF iter   7:  -115.65870980770276   -1.01103e-08   1.07614e-06 DIIS
   @RHF iter   8:  -115.65870980834258   -6.39815e-10   1.43608e-07 DIIS
  Energy and wave function converged.


  ==> Post-Iterations <==

    Orbital Energies [Eh]
    ---------------------

    Doubly Occupied:                                                      

       1A    -11.044332     2A    -11.026084     3A    -11.007531  
       4A     -1.010861     5A     -0.885435     6A     -0.712003  
       7A     -0.596187     8A     -0.537045     9A     -0.533239  
      10A     -0.478889    11A     -0.442977    12A     -0.306625  

    Virtual:                                                              

      13A      0.321317    14A      0.607116    15A      0.675018  
      16A      0.695295    17A      0.713297    18A      0.722216  
      19A      0.748415    20A      0.939760    21A      1.026796  

    Final Occupation by Irrep:
              A 
    DOCC [    12 ]

  @RHF Final Energy:  -115.65870980834258

   => Energetics <=

    Nuclear Repulsion Energy =             70.5803324751013577
    One-Electron Energy =                -295.3156672857908802
    Two-Electron Energy =                 109.0766250023469439
    Total Energy =                       -115.6587098083425786

Computation Completed


Properties will be evaluated at   0.000000,   0.000000,   0.000000 [a0]

Properties computed using the SCF density matrix

  Nuclear Dipole Moment: [e a0]
     X:    -0.9548      Y:    -0.7741      Z:    -0.2577

  Electronic Dipole Moment: [e a0]
     X:     0.8557      Y:     0.7642      Z:     0.2493

  Dipole Moment: [e a0]
     X:    -0.0991      Y:    -0.0099      Z:    -0.0085     Total:     0.1000

  Dipole Moment: [D]
     X:    -0.2519      Y:    -0.0252      Z:    -0.0215     Total:     0.2541


*** tstop() called on trurls-machine at Thu Mar  5 17:30:29 2020
Module time:
	user time   =       0.35 seconds =       0.01 minutes
	system time =       0.02 seconds =       0.00 minutes
	total time  =          1 seconds =       0.02 minutes
Total time:
	user time   =       0.35 seconds =       0.01 minutes
	system time =       0.02 seconds =       0.00 minutes
	total time  =          1 seconds =       0.02 minutes

*** tstart() called on trurls-machine
*** at Thu Mar  5 17:30:29 2020

   => Loading Basis Set <=

    Name: STO-3G
    Role: ORBITAL
    Keyword: BASIS
    atoms 1-3 entry C          line    61 file /Users/teague/anaconda3/envs/gen_env/share/psi4/basis/sto-3g.gbs 
    atoms 4-9 entry H          line    19 file /Users/teague/anaconda3/envs/gen_env/share/psi4/basis/sto-3g.gbs 


         ---------------------------------------------------------
                                   SCF
               by Justin Turney, Rob Parrish, Andy Simmonett
                          and Daniel G. A. Smith
                              RHF Reference
                        1 Threads,   7629 MiB Core
         ---------------------------------------------------------

  ==> Geometry <==

    Molecular point group: c1
    Full point group: C1

    Geometry (in Angstrom), charge = 0, multiplicity = 1:

       Center              X                  Y                   Z               Mass       
    ------------   -----------------  -----------------  -----------------  -----------------
         C           -1.136586429983    -0.534350924464    -0.205636874580    12.000000000000
         C           -0.040686429983     0.442249075536     0.112863125420    12.000000000000
         C            1.262813570017     0.161449075536     0.115863125420    12.000000000000
         H           -1.834586429983    -0.636050924464     0.636263125420     1.007825032230
         H           -1.730786429983    -0.197450924464    -1.065936874580     1.007825032230
         H           -0.735286429983    -1.526750924464    -0.437036874580     1.007825032230
         H           -0.361786429983     1.455749075536     0.358263125420     1.007825032230
         H            2.010613570017     0.912849075536     0.355163125420     1.007825032230
         H            1.633313570017    -0.834050924464    -0.121636874580     1.007825032230

  Running in c1 symmetry.

  Rotational constants: A =      1.56030  B =      0.30838  C =      0.27040 [cm^-1]
  Rotational constants: A =  46776.63800  B =   9245.07024  C =   8106.31048 [MHz]
  Nuclear repulsion =   70.580332475101358

  Charge       = 0
  Multiplicity = 1
  Electrons    = 24
  Nalpha       = 12
  Nbeta        = 12

  ==> Algorithm <==

  SCF Algorithm Type is PK.
  DIIS enabled.
  MOM disabled.
  Fractional occupation disabled.
  Guess Type is SAD.
  Energy threshold   = 1.00e-06
  Density threshold  = 1.00e-06
  Integral threshold = 0.00e+00

  ==> Primary Basis <==

  Basis Set: STO-3G
    Blend: STO-3G
    Number of shells: 15
    Number of basis function: 21
    Number of Cartesian functions: 21
    Spherical Harmonics?: true
    Max angular momentum: 1

  ==> Pre-Iterations <==

   -------------------------------------------------------
    Irrep   Nso     Nmo     Nalpha   Nbeta   Ndocc  Nsocc
   -------------------------------------------------------
     A         21      21       0       0       0       0
   -------------------------------------------------------
    Total      21      21      12      12      12       0
   -------------------------------------------------------

  ==> Integral Setup <==

  Using in-core PK algorithm.
   Calculation information:
      Number of atoms:                   9
      Number of AO shells:              15
      Number of primitives:             45
      Number of atomic orbitals:        21
      Number of basis functions:        21

      Integral cutoff                 1.00e-12
      Number of threads:                 1

  Performing in-core PK
  Using 53592 doubles for integral storage.
  We computed 7138 shell quartets total.
  Whereas there are 7260 unique shell quartets.

  ==> DiskJK: Disk-Based J/K Matrices <==

    J tasked:                  Yes
    K tasked:                  Yes
    wK tasked:                  No
    Memory [MiB]:             5722
    Schwarz Cutoff:          1E-12

    OpenMP threads:              1

  Minimum eigenvalue in the overlap matrix is 1.8848241061E-01.
  Using Symmetric Orthogonalization.

  SCF Guess: Superposition of Atomic Densities via on-the-fly atomic UHF.

  ==> Iterations <==

                        Total Energy        Delta E     RMS |[F,P]|

   @RHF iter SAD:  -112.95561063897364   -1.12956e+02   0.00000e+00 
   @RHF iter   1:  -115.65267428183604   -2.69706e+00   4.10370e-03 DIIS
   @RHF iter   2:  -115.65817832117077   -5.50404e-03   1.27017e-03 DIIS
   @RHF iter   3:  -115.65863844976357   -4.60129e-04   4.66900e-04 DIIS
   @RHF iter   4:  -115.65870843026272   -6.99805e-05   6.62763e-05 DIIS
   @RHF iter   5:  -115.65870971647360   -1.28621e-06   1.27540e-05 DIIS
   @RHF iter   6:  -115.65870979759245   -8.11189e-08   4.54160e-06 DIIS
   @RHF iter   7:  -115.65870980770276   -1.01103e-08   1.07614e-06 DIIS
   @RHF iter   8:  -115.65870980834258   -6.39815e-10   1.43608e-07 DIIS
  Energy and wave function converged.


  ==> Post-Iterations <==

    Orbital Energies [Eh]
    ---------------------

    Doubly Occupied:                                                      

       1A    -11.044332     2A    -11.026084     3A    -11.007531  
       4A     -1.010861     5A     -0.885435     6A     -0.712003  
       7A     -0.596187     8A     -0.537045     9A     -0.533239  
      10A     -0.478889    11A     -0.442977    12A     -0.306625  

    Virtual:                                                              

      13A      0.321317    14A      0.607116    15A      0.675018  
      16A      0.695295    17A      0.713297    18A      0.722216  
      19A      0.748415    20A      0.939760    21A      1.026796  

    Final Occupation by Irrep:
              A 
    DOCC [    12 ]

  @RHF Final Energy:  -115.65870980834258

   => Energetics <=

    Nuclear Repulsion Energy =             70.5803324751013577
    One-Electron Energy =                -295.3156672857908802
    Two-Electron Energy =                 109.0766250023469439
    Total Energy =                       -115.6587098083425786

Computation Completed


Properties will be evaluated at   0.000000,   0.000000,   0.000000 [a0]

Properties computed using the SCF density matrix

  Nuclear Dipole Moment: [e a0]
     X:    -0.9548      Y:    -0.7741      Z:    -0.2577

  Electronic Dipole Moment: [e a0]
     X:     0.8557      Y:     0.7642      Z:     0.2493

  Dipole Moment: [e a0]
     X:    -0.0991      Y:    -0.0099      Z:    -0.0085     Total:     0.1000

  Dipole Moment: [D]
     X:    -0.2519      Y:    -0.0252      Z:    -0.0215     Total:     0.2541


*** tstop() called on trurls-machine at Thu Mar  5 17:30:29 2020
Module time:
	user time   =       0.31 seconds =       0.01 minutes
	system time =       0.01 seconds =       0.00 minutes
	total time  =          0 seconds =       0.00 minutes
Total time:
	user time   =       0.90 seconds =       0.02 minutes
	system time =       0.04 seconds =       0.00 minutes
	total time  =          1 seconds =       0.02 minutes

*** tstart() called on trurls-machine
*** at Thu Mar  5 17:30:29 2020


  //>>>>>>>>>>>>>>>>>>>>>>>>>>>>>>>>>>>//
  //               DFMP2               //
  //<<<<<<<<<<<<<<<<<<<<<<<<<<<<<<<<<<<//

   => Loading Basis Set <=

    Name: (STO-3G AUX)
    Role: RIFIT
    Keyword: DF_BASIS_MP2
    atoms 1-3 entry C          line   270 file /Users/teague/anaconda3/envs/gen_env/share/psi4/basis/def2-qzvpp-ri.gbs 
    atoms 4-9 entry H          line    24 file /Users/teague/anaconda3/envs/gen_env/share/psi4/basis/def2-qzvpp-ri.gbs 

	 --------------------------------------------------------
	                          DF-MP2                         
	      2nd-Order Density-Fitted Moller-Plesset Theory     
	              RMP2 Wavefunction,   1 Threads             
	                                                         
	        Rob Parrish, Justin Turney, Andy Simmonett,      
	           Ed Hohenstein, and C. David Sherrill          
	 --------------------------------------------------------

   => Auxiliary Basis Set <=

  Basis Set: (STO-3G AUX)
    Blend: DEF2-QZVPP-RI
    Number of shells: 195
    Number of basis function: 759
    Number of Cartesian functions: 999
    Spherical Harmonics?: true
    Max angular momentum: 5

	 --------------------------------------------------------
	                 NBF =    21, NAUX =   759
	 --------------------------------------------------------
	   CLASS    FOCC     OCC    AOCC    AVIR     VIR    FVIR
	   PAIRS       0      12      12       9       9       0
	 --------------------------------------------------------

	-----------------------------------------------------------
	 ==================> DF-MP2 Energies <==================== 
	-----------------------------------------------------------
	 Reference Energy          =    -115.6587098083425786 [Eh]
	 Singles Energy            =      -0.0000000000000000 [Eh]
	 Same-Spin Energy          =      -0.0223168012433184 [Eh]
	 Opposite-Spin Energy      =      -0.1520730027941141 [Eh]
	 Correlation Energy        =      -0.1743898040374325 [Eh]
	 Total Energy              =    -115.8330996123800105 [Eh]
	-----------------------------------------------------------
	 ================> DF-SCS-MP2 Energies <================== 
	-----------------------------------------------------------
	 SCS Same-Spin Scale       =       0.3333333333333333 [-]
	 SCS Opposite-Spin Scale   =       1.2000000000000000 [-]
	 SCS Same-Spin Energy      =      -0.0074389337477728 [Eh]
	 SCS Opposite-Spin Energy  =      -0.1824876033529369 [Eh]
	 SCS Correlation Energy    =      -0.1899265371007097 [Eh]
	 SCS Total Energy          =    -115.8486363454432819 [Eh]
	-----------------------------------------------------------


*** tstop() called on trurls-machine at Thu Mar  5 17:30:30 2020
Module time:
	user time   =       0.35 seconds =       0.01 minutes
	system time =       0.01 seconds =       0.00 minutes
	total time  =          1 seconds =       0.02 minutes
Total time:
	user time   =       1.25 seconds =       0.02 minutes
	system time =       0.05 seconds =       0.00 minutes
	total time  =          2 seconds =       0.03 minutes

*** tstart() called on trurls-machine
*** at Thu Mar  5 17:30:30 2020

   => Loading Basis Set <=

    Name: STO-3G
    Role: ORBITAL
    Keyword: BASIS
    atoms 1-3 entry C          line    61 file /Users/teague/anaconda3/envs/gen_env/share/psi4/basis/sto-3g.gbs 
    atoms 4-9 entry H          line    19 file /Users/teague/anaconda3/envs/gen_env/share/psi4/basis/sto-3g.gbs 


         ---------------------------------------------------------
                                   SCF
               by Justin Turney, Rob Parrish, Andy Simmonett
                          and Daniel G. A. Smith
                              RHF Reference
                        1 Threads,   7629 MiB Core
         ---------------------------------------------------------

  ==> Geometry <==

    Molecular point group: c1
    Full point group: C1

    Geometry (in Angstrom), charge = 0, multiplicity = 1:

       Center              X                  Y                   Z               Mass       
    ------------   -----------------  -----------------  -----------------  -----------------
         C           -1.136586429983    -0.534350924464    -0.205636874580    12.000000000000
         C           -0.040686429983     0.442249075536     0.112863125420    12.000000000000
         C            1.262813570017     0.161449075536     0.115863125420    12.000000000000
         H           -1.834586429983    -0.636050924464     0.636263125420     1.007825032230
         H           -1.730786429983    -0.197450924464    -1.065936874580     1.007825032230
         H           -0.735286429983    -1.526750924464    -0.437036874580     1.007825032230
         H           -0.361786429983     1.455749075536     0.358263125420     1.007825032230
         H            2.010613570017     0.912849075536     0.355163125420     1.007825032230
         H            1.633313570017    -0.834050924464    -0.121636874580     1.007825032230

  Running in c1 symmetry.

  Rotational constants: A =      1.56030  B =      0.30838  C =      0.27040 [cm^-1]
  Rotational constants: A =  46776.63800  B =   9245.07024  C =   8106.31048 [MHz]
  Nuclear repulsion =   70.580332475101358

  Charge       = 0
  Multiplicity = 1
  Electrons    = 24
  Nalpha       = 12
  Nbeta        = 12

  ==> Algorithm <==

  SCF Algorithm Type is PK.
  DIIS enabled.
  MOM disabled.
  Fractional occupation disabled.
  Guess Type is SAD.
  Energy threshold   = 1.00e-06
  Density threshold  = 1.00e-06
  Integral threshold = 0.00e+00

  ==> Primary Basis <==

  Basis Set: STO-3G
    Blend: STO-3G
    Number of shells: 15
    Number of basis function: 21
    Number of Cartesian functions: 21
    Spherical Harmonics?: true
    Max angular momentum: 1

  ==> Pre-Iterations <==

   -------------------------------------------------------
    Irrep   Nso     Nmo     Nalpha   Nbeta   Ndocc  Nsocc
   -------------------------------------------------------
     A         21      21       0       0       0       0
   -------------------------------------------------------
    Total      21      21      12      12      12       0
   -------------------------------------------------------

  ==> Integral Setup <==

  Using in-core PK algorithm.
   Calculation information:
      Number of atoms:                   9
      Number of AO shells:              15
      Number of primitives:             45
      Number of atomic orbitals:        21
      Number of basis functions:        21

      Integral cutoff                 1.00e-12
      Number of threads:                 1

  Performing in-core PK
  Using 53592 doubles for integral storage.
  We computed 7138 shell quartets total.
  Whereas there are 7260 unique shell quartets.

  ==> DiskJK: Disk-Based J/K Matrices <==

    J tasked:                  Yes
    K tasked:                  Yes
    wK tasked:                  No
    Memory [MiB]:             5722
    Schwarz Cutoff:          1E-12

    OpenMP threads:              1

  Minimum eigenvalue in the overlap matrix is 1.8848241061E-01.
  Using Symmetric Orthogonalization.

  SCF Guess: Superposition of Atomic Densities via on-the-fly atomic UHF.

  ==> Iterations <==

                        Total Energy        Delta E     RMS |[F,P]|

   @RHF iter SAD:  -112.95561063897364   -1.12956e+02   0.00000e+00 
   @RHF iter   1:  -115.65267428183604   -2.69706e+00   4.10370e-03 DIIS
   @RHF iter   2:  -115.65817832117077   -5.50404e-03   1.27017e-03 DIIS
   @RHF iter   3:  -115.65863844976357   -4.60129e-04   4.66900e-04 DIIS
   @RHF iter   4:  -115.65870843026272   -6.99805e-05   6.62763e-05 DIIS
   @RHF iter   5:  -115.65870971647360   -1.28621e-06   1.27540e-05 DIIS
   @RHF iter   6:  -115.65870979759245   -8.11189e-08   4.54160e-06 DIIS
   @RHF iter   7:  -115.65870980770276   -1.01103e-08   1.07614e-06 DIIS
   @RHF iter   8:  -115.65870980834258   -6.39815e-10   1.43608e-07 DIIS
  Energy and wave function converged.


  ==> Post-Iterations <==

    Orbital Energies [Eh]
    ---------------------

    Doubly Occupied:                                                      

       1A    -11.044332     2A    -11.026084     3A    -11.007531  
       4A     -1.010861     5A     -0.885435     6A     -0.712003  
       7A     -0.596187     8A     -0.537045     9A     -0.533239  
      10A     -0.478889    11A     -0.442977    12A     -0.306625  

    Virtual:                                                              

      13A      0.321317    14A      0.607116    15A      0.675018  
      16A      0.695295    17A      0.713297    18A      0.722216  
      19A      0.748415    20A      0.939760    21A      1.026796  

    Final Occupation by Irrep:
              A 
    DOCC [    12 ]

  @RHF Final Energy:  -115.65870980834258

   => Energetics <=

    Nuclear Repulsion Energy =             70.5803324751013577
    One-Electron Energy =                -295.3156672857908802
    Two-Electron Energy =                 109.0766250023469439
    Total Energy =                       -115.6587098083425786

Computation Completed


Properties will be evaluated at   0.000000,   0.000000,   0.000000 [a0]

Properties computed using the SCF density matrix

  Nuclear Dipole Moment: [e a0]
     X:    -0.9548      Y:    -0.7741      Z:    -0.2577

  Electronic Dipole Moment: [e a0]
     X:     0.8557      Y:     0.7642      Z:     0.2493

  Dipole Moment: [e a0]
     X:    -0.0991      Y:    -0.0099      Z:    -0.0085     Total:     0.1000

  Dipole Moment: [D]
     X:    -0.2519      Y:    -0.0252      Z:    -0.0215     Total:     0.2541


*** tstop() called on trurls-machine at Thu Mar  5 17:30:30 2020
Module time:
	user time   =       0.33 seconds =       0.01 minutes
	system time =       0.01 seconds =       0.00 minutes
	total time  =          0 seconds =       0.00 minutes
Total time:
	user time   =       1.64 seconds =       0.03 minutes
	system time =       0.06 seconds =       0.00 minutes
	total time  =          2 seconds =       0.03 minutes
 MINTS: Wrapper to libmints.
   by Justin Turney

   Calculation information:
      Number of threads:                 1
      Number of atoms:                   9
      Number of AO shells:              15
      Number of SO shells:              15
      Number of primitives:             45
      Number of atomic orbitals:        21
      Number of basis functions:        21

      Number of irreps:                  1
      Integral cutoff                 0.00e+00
      Number of functions per irrep: [  21 ]

 OEINTS: Overlap, kinetic, potential, dipole, and quadrupole integrals
         stored in file 35.

      Computing two-electron integrals...done
      Computed 26622 non-zero two-electron integrals.
        Stored in file 33.


         ---------------------------------------------------------
                          Configuration Interaction
                            (a 'D E T C I' module)

                 C. David Sherrill, Daniel G. A. Smith, and
                              Matt L. Leininger
         ---------------------------------------------------------


   ==> Parameters <==

    EX LEVEL       =        2      H0 BLOCKSIZE  =     1000
    VAL EX LEVEL   =        0      H0 GUESS SIZE =     1000
    H0COUPLINGSIZE =        0      H0 COUPLING   =       NO
    MAXITER        =       24      NUM PRINT     =       20
    NUM ROOTS      =        1      ICORE         =        1
    PRINT LVL      =        1      FCI           =       NO
    R CONV         = 1.00e-06      MIXED         =      YES
    E CONV         = 1.00e-06      MIXED4        =      YES
    R4S            =       NO      REPL OTF      =       NO
    DIAG METHOD    =      SEM      FOLLOW ROOT   =        0
    PRECONDITIONER = DAVIDSON      UPDATE        = DAVIDSON
    S              =   0.0000      Ms0           =      YES
    GUESS VECTOR   =  H0BLOCK      OPENTYPE      =     NONE
    COLLAPSE SIZE  =        1      HD AVG        = EVANGELISTI
    MAX NUM VECS   =       25      REF SYM       =     AUTO
    IOPEN        =       NO

    EX ALLOW       =  1  1 
    STATE AVERAGE  =  0(1.00) 

   ==> CI Orbital and Space information <==

    RAS1 LVL      =       11      A RAS3 MAX    =        2
    RAS1 MIN      =       22      B RAS3 MAX    =        2
    A RAS1 LVL    =       11      RAS4 LVL      =       21
    A RAS1 MIN    =       10      A RAS4 MAX    =        0
    A RAS1 MAX    =       12      B RAS4 MAX    =        0
    B RAS1 LVL    =       11      RAS4 MAX      =        0
    B RAS1 MIN    =       10      A RAS34 MAX   =        2
    B RAS1 MAX    =       12      B RAS34 MAX   =        2
    RAS3 LVL      =       12      RAS34 MAX     =        2
    RAS3 MAX      =        2
   ------------------------------------
               Space    Total     A
   ------------------------------------
                 Nso       21    21
                 Nmo       21    21
               Ndocc       12    12
               Nsocc        0     0
   ------------------------------------
              CI Spaces
   ------------------------------------
        Dropped DOCC        0     0
                RAS1       12    12
                RAS2        0     0
                RAS3        9     9
                RAS4        0     0
      Active (total)       21    21
        Dropped UOCC        0     0
   ------------------------------------

   ==> Setting up CI strings <==

    There are 2485 alpha and 2485 beta strings
    The CI space requires 16633 (1.66E+04) determinants and 6 blocks

   ==> Transforming CI integrals <==

	Presorting SO-basis two-electron integrals.
	Sorting File: SO Ints (nn|nn) nbuckets = 1
	Transforming the one-electron integrals and constructing Fock matrices
	Starting first half-transformation.
	Sorting half-transformed integrals.
	First half integral transformation complete.
	Starting second half-transformation.
	Two-electron integral transformation complete.

   ==> Starting CI iterations <==

    H0 Block Eigenvalue = -115.71828524

    Simultaneous Expansion Method (Block Davidson Method)
    Using 1 initial trial vectors

     Iter   Root       Total Energy       Delta E      C RMS

   @CI  0:     0   -115.718285240298   -1.8630E+02   5.7892E-01  
   @CI  1:     0   -115.858605499214   -1.4032E-01   1.0949E-01  
   @CI  2:     0   -115.864249451856   -5.6440E-03   2.7526E-02  
   @CI  3:     0   -115.864625077301   -3.7563E-04   5.8905E-03  
   @CI  4:     0   -115.864642800004   -1.7723E-05   1.5954E-03  
   @CI  5:     0   -115.864643791959   -9.9196E-07   3.2069E-04  
   @CI  6:     0   -115.864643835751   -4.3792E-08   7.7949E-05  
   @CI  7:     0   -115.864643838628   -2.8770E-09   2.3598E-05  
   @CI  8:     0   -115.864643838838   -2.0987E-10   5.8275E-06  
   @CI  9:     0   -115.864643838853   -1.5007E-11   1.8011E-06  
   @CI 10:     0   -115.864643838855   -1.4495E-12   5.0296E-07 c

   ==> Energetics <==

    SCF energy =         -115.658709808342579
    Total CI energy =    -115.864643838854732

   ==> CISD root 0 information <==

    CISD Root 0 energy =  -115.864643838854732

   The 20 most important determinants:

    *   1   -0.946313  (    0,    0)  1AX 2AX 3AX 4AX 5AX 6AX 7AX 8AX 9AX 10AX 11AX 12AX 
    *   2    0.162507  (    1,    1)  1AX 2AX 3AX 4AX 5AX 6AX 7AX 8AX 9AX 10AX 11AX 13AX 
    *   3    0.053056  (   52,   52)  1AX 2AX 3AX 4AX 5AX 6AX 7AX 8AX 10AX 11AX 12AX 17AX 
    *   4    0.031068  (    1,    4)  1AX 2AX 3AX 4AX 5AX 6AX 7AX 8AX 9AA 10AX 11AX 12AB 13AX 
    *   5    0.031068  (    4,    1)  1AX 2AX 3AX 4AX 5AX 6AX 7AX 8AX 9AB 10AX 11AX 12AA 13AX 
    *   6    0.029902  (   14,   14)  1AX 2AX 3AX 4AX 5AX 6AX 7AX 8AX 9AX 10AX 12AX 14AX 
    *   7    0.026464  (    1,   99)  1AX 2AX 3AX 4AX 5AX 6AX 7AX 8AX 9AX 10AA 11AX 12AB 13AA 21AB 
    *   8    0.026464  (   99,    1)  1AX 2AX 3AX 4AX 5AX 6AX 7AX 8AX 9AX 10AB 11AX 12AA 13AB 21AA 
    *   9    0.024331  (   86,   86)  1AX 2AX 3AX 4AX 5AX 6AX 7AX 8AX 9AX 10AX 12AX 20AX 
    *  10    0.022879  (   76,   76)  1AX 2AX 3AX 4AX 5AX 6AX 7AX 8AX 10AX 11AX 12AX 19AX 
    *  11   -0.021653  (    1,  101)  1AX 2AX 3AX 4AX 5AX 6AX 7AX 8AA 9AX 10AX 11AX 12AB 13AA 21AB 
    *  12   -0.021653  (  101,    1)  1AX 2AX 3AX 4AX 5AX 6AX 7AX 8AB 9AX 10AX 11AX 12AA 13AB 21AA 
    *  13    0.021291  (   18,   18)  1AX 2AX 3AX 4AX 5AX 6AX 8AX 9AX 10AX 11AX 12AX 14AX 
    *  14    0.020406  (   27,   27)  1AX 2AX 3AX 4AX 5AX 6AX 7AX 8AX 9AX 11AX 12AX 15AX 
    *  15   -0.020225  (   52,   80)  1AX 2AX 3AX 4AX 5AA 6AX 7AX 8AX 9AB 10AX 11AX 12AX 17AA 19AB 
    *  16   -0.020225  (   80,   52)  1AX 2AX 3AX 4AX 5AB 6AX 7AX 8AX 9AA 10AX 11AX 12AX 17AB 19AA 
    *  17   -0.020067  (   18,   86)  1AX 2AX 3AX 4AX 5AX 6AX 7AB 8AX 9AX 10AX 11AA 12AX 14AA 20AB 
    *  18   -0.020067  (   86,   18)  1AX 2AX 3AX 4AX 5AX 6AX 7AA 8AX 9AX 10AX 11AB 12AX 14AB 20AA 
    *  19    0.020014  (   65,   65)  1AX 2AX 3AX 4AX 5AX 6AX 7AX 9AX 10AX 11AX 12AX 18AX 
    *  20    0.018724  (   63,   63)  1AX 2AX 3AX 4AX 5AX 6AX 7AX 8AX 9AX 11AX 12AX 18AX 

		 "A good bug is a dead bug" 

			 - Starship Troopers

		 "I didn't write FORTRAN.  That's the problem."

			 - Edward Valeev

*** tstart() called on trurls-machine
*** at Thu Mar  5 17:30:32 2020

   => Loading Basis Set <=

    Name: STO-3G
    Role: ORBITAL
    Keyword: BASIS
    atoms 1-3 entry C          line    61 file /Users/teague/anaconda3/envs/gen_env/share/psi4/basis/sto-3g.gbs 
    atoms 4-9 entry H          line    19 file /Users/teague/anaconda3/envs/gen_env/share/psi4/basis/sto-3g.gbs 


         ---------------------------------------------------------
                                   SCF
               by Justin Turney, Rob Parrish, Andy Simmonett
                          and Daniel G. A. Smith
                              RHF Reference
                        1 Threads,   7629 MiB Core
         ---------------------------------------------------------

  ==> Geometry <==

    Molecular point group: c1
    Full point group: C1

    Geometry (in Angstrom), charge = 0, multiplicity = 1:

       Center              X                  Y                   Z               Mass       
    ------------   -----------------  -----------------  -----------------  -----------------
         C           -1.136586429983    -0.534350924464    -0.205636874580    12.000000000000
         C           -0.040686429983     0.442249075536     0.112863125420    12.000000000000
         C            1.262813570017     0.161449075536     0.115863125420    12.000000000000
         H           -1.834586429983    -0.636050924464     0.636263125420     1.007825032230
         H           -1.730786429983    -0.197450924464    -1.065936874580     1.007825032230
         H           -0.735286429983    -1.526750924464    -0.437036874580     1.007825032230
         H           -0.361786429983     1.455749075536     0.358263125420     1.007825032230
         H            2.010613570017     0.912849075536     0.355163125420     1.007825032230
         H            1.633313570017    -0.834050924464    -0.121636874580     1.007825032230

  Running in c1 symmetry.

  Rotational constants: A =      1.56030  B =      0.30838  C =      0.27040 [cm^-1]
  Rotational constants: A =  46776.63800  B =   9245.07024  C =   8106.31048 [MHz]
  Nuclear repulsion =   70.580332475101358

  Charge       = 0
  Multiplicity = 1
  Electrons    = 24
  Nalpha       = 12
  Nbeta        = 12

  ==> Algorithm <==

  SCF Algorithm Type is PK.
  DIIS enabled.
  MOM disabled.
  Fractional occupation disabled.
  Guess Type is SAD.
  Energy threshold   = 1.00e-06
  Density threshold  = 1.00e-06
  Integral threshold = 0.00e+00

  ==> Primary Basis <==

  Basis Set: STO-3G
    Blend: STO-3G
    Number of shells: 15
    Number of basis function: 21
    Number of Cartesian functions: 21
    Spherical Harmonics?: true
    Max angular momentum: 1

  ==> Pre-Iterations <==

   -------------------------------------------------------
    Irrep   Nso     Nmo     Nalpha   Nbeta   Ndocc  Nsocc
   -------------------------------------------------------
     A         21      21       0       0       0       0
   -------------------------------------------------------
    Total      21      21      12      12      12       0
   -------------------------------------------------------

  ==> Integral Setup <==

  Using in-core PK algorithm.
   Calculation information:
      Number of atoms:                   9
      Number of AO shells:              15
      Number of primitives:             45
      Number of atomic orbitals:        21
      Number of basis functions:        21

      Integral cutoff                 1.00e-12
      Number of threads:                 1

  Performing in-core PK
  Using 53592 doubles for integral storage.
  We computed 7138 shell quartets total.
  Whereas there are 7260 unique shell quartets.

  ==> DiskJK: Disk-Based J/K Matrices <==

    J tasked:                  Yes
    K tasked:                  Yes
    wK tasked:                  No
    Memory [MiB]:             5722
    Schwarz Cutoff:          1E-12

    OpenMP threads:              1

  Minimum eigenvalue in the overlap matrix is 1.8848241061E-01.
  Using Symmetric Orthogonalization.

  SCF Guess: Superposition of Atomic Densities via on-the-fly atomic UHF.

  ==> Iterations <==

                        Total Energy        Delta E     RMS |[F,P]|

   @RHF iter SAD:  -112.95561063897364   -1.12956e+02   0.00000e+00 
   @RHF iter   1:  -115.65267428183604   -2.69706e+00   4.10370e-03 DIIS
   @RHF iter   2:  -115.65817832117077   -5.50404e-03   1.27017e-03 DIIS
   @RHF iter   3:  -115.65863844976357   -4.60129e-04   4.66900e-04 DIIS
   @RHF iter   4:  -115.65870843026272   -6.99805e-05   6.62763e-05 DIIS
   @RHF iter   5:  -115.65870971647360   -1.28621e-06   1.27540e-05 DIIS
   @RHF iter   6:  -115.65870979759245   -8.11189e-08   4.54160e-06 DIIS
   @RHF iter   7:  -115.65870980770276   -1.01103e-08   1.07614e-06 DIIS
   @RHF iter   8:  -115.65870980834258   -6.39815e-10   1.43608e-07 DIIS
  Energy and wave function converged.


  ==> Post-Iterations <==

    Orbital Energies [Eh]
    ---------------------

    Doubly Occupied:                                                      

       1A    -11.044332     2A    -11.026084     3A    -11.007531  
       4A     -1.010861     5A     -0.885435     6A     -0.712003  
       7A     -0.596187     8A     -0.537045     9A     -0.533239  
      10A     -0.478889    11A     -0.442977    12A     -0.306625  

    Virtual:                                                              

      13A      0.321317    14A      0.607116    15A      0.675018  
      16A      0.695295    17A      0.713297    18A      0.722216  
      19A      0.748415    20A      0.939760    21A      1.026796  

    Final Occupation by Irrep:
              A 
    DOCC [    12 ]

  @RHF Final Energy:  -115.65870980834258

   => Energetics <=

    Nuclear Repulsion Energy =             70.5803324751013577
    One-Electron Energy =                -295.3156672857908802
    Two-Electron Energy =                 109.0766250023469439
    Total Energy =                       -115.6587098083425786

Computation Completed


Properties will be evaluated at   0.000000,   0.000000,   0.000000 [a0]

Properties computed using the SCF density matrix

  Nuclear Dipole Moment: [e a0]
     X:    -0.9548      Y:    -0.7741      Z:    -0.2577

  Electronic Dipole Moment: [e a0]
     X:     0.8557      Y:     0.7642      Z:     0.2493

  Dipole Moment: [e a0]
     X:    -0.0991      Y:    -0.0099      Z:    -0.0085     Total:     0.1000

  Dipole Moment: [D]
     X:    -0.2519      Y:    -0.0252      Z:    -0.0215     Total:     0.2541


*** tstop() called on trurls-machine at Thu Mar  5 17:30:33 2020
Module time:
	user time   =       0.34 seconds =       0.01 minutes
	system time =       0.01 seconds =       0.00 minutes
	total time  =          1 seconds =       0.02 minutes
Total time:
	user time   =       4.15 seconds =       0.07 minutes
	system time =       0.14 seconds =       0.00 minutes
	total time  =          5 seconds =       0.08 minutes
 MINTS: Wrapper to libmints.
   by Justin Turney

   Calculation information:
      Number of threads:                 1
      Number of atoms:                   9
      Number of AO shells:              15
      Number of SO shells:              15
      Number of primitives:             45
      Number of atomic orbitals:        21
      Number of basis functions:        21

      Number of irreps:                  1
      Integral cutoff                 0.00e+00
      Number of functions per irrep: [  21 ]

 OEINTS: Overlap, kinetic, potential, dipole, and quadrupole integrals
         stored in file 35.

      Computing two-electron integrals...done
      Computed 26622 non-zero two-electron integrals.
        Stored in file 33.


         ---------------------------------------------------------
                          Configuration Interaction
                            (a 'D E T C I' module)

                 C. David Sherrill, Daniel G. A. Smith, and
                              Matt L. Leininger
         ---------------------------------------------------------


   ==> Parameters <==

    EX LEVEL       =       24      H0 BLOCKSIZE  =     1000
    VAL EX LEVEL   =        0      H0 GUESS SIZE =     1000
    H0COUPLINGSIZE =        0      H0 COUPLING   =       NO
    MAXITER        =       24      NUM PRINT     =       20
    NUM ROOTS      =        1      ICORE         =        1
    PRINT LVL      =        1      FCI           =      YES
    R CONV         = 1.00e-06      MIXED         =      YES
    E CONV         = 1.00e-06      MIXED4        =      YES
    R4S            =       NO      REPL OTF      =       NO
    DIAG METHOD    =      SEM      FOLLOW ROOT   =        0
    PRECONDITIONER = DAVIDSON      UPDATE        = DAVIDSON
    S              =   0.0000      Ms0           =      YES
    GUESS VECTOR   =  H0BLOCK      OPENTYPE      =     NONE
    COLLAPSE SIZE  =        1      HD AVG        = EVANGELISTI
    MAX NUM VECS   =       25      REF SYM       =     AUTO
    IOPEN        =       NO

    EX ALLOW       =  1  1  1  1  1  1  1  1  1  1  1  1  1  1  1  1  1  1  1  1  1  1  1  1 
    STATE AVERAGE  =  0(1.00) 

   ==> CI Orbital and Space information <==

   ------------------------------------
               Space    Total     A
   ------------------------------------
                 Nso       21    21
                 Nmo       21    21
               Ndocc       12    12
               Nsocc        0     0
   ------------------------------------
              CI Spaces
   ------------------------------------
        Dropped DOCC        0     0
              Active       21    21
        Dropped UOCC        0     0
   ------------------------------------

   ==> Setting up CI strings <==

    There are 293930 alpha and 293930 beta strings
    The CI space requires 86394844900 (8.64E+10) determinants and 1 blocks

   ==> Transforming CI integrals <==

	Presorting SO-basis two-electron integrals.
	Sorting File: SO Ints (nn|nn) nbuckets = 1
	Transforming the one-electron integrals and constructing Fock matrices
	Starting first half-transformation.
	Sorting half-transformed integrals.
	First half integral transformation complete.
	Starting second half-transformation.
	Two-electron integral transformation complete.

   ==> Starting CI iterations <==

