
    -----------------------------------------------------------------------
          Psi4: An Open-Source Ab Initio Electronic Structure Package
                               Psi4 1.3.2 release

                         Git: Rev {HEAD} ecbda83 


    R. M. Parrish, L. A. Burns, D. G. A. Smith, A. C. Simmonett,
    A. E. DePrince III, E. G. Hohenstein, U. Bozkaya, A. Yu. Sokolov,
    R. Di Remigio, R. M. Richard, J. F. Gonthier, A. M. James,
    H. R. McAlexander, A. Kumar, M. Saitow, X. Wang, B. P. Pritchard,
    P. Verma, H. F. Schaefer III, K. Patkowski, R. A. King, E. F. Valeev,
    F. A. Evangelista, J. M. Turney, T. D. Crawford, and C. D. Sherrill,
    J. Chem. Theory Comput. 13(7) pp 3185--3197 (2017).
    (doi: 10.1021/acs.jctc.7b00174)


                         Additional Contributions by
    P. Kraus, H. Kruse, M. H. Lechner, M. C. Schieber, R. A. Shaw,
    A. Alenaizan, R. Galvelis, Z. L. Glick, S. Lehtola, and J. P. Misiewicz

    -----------------------------------------------------------------------


    Psi4 started on: Thursday, 05 March 2020 10:51AM

    Process ID: 73102
    Host:       trurls-machine
    PSIDATADIR: /Users/teague/anaconda3/envs/gen_env/share/psi4
    Memory:     500.0 MiB
    Threads:    1
    
  ==> Input File <==

--------------------------------------------------------------------------
"""This is a template for psi4 input format."""
import numpy
import sys

from openfermion.config import *
from openfermion.hamiltonians import MolecularData
from openfermion.ops import general_basis_change

from numpy import array

sys.path.append('/Users/teague/.local/lib/python3.7/site-packages/openfermionpsi4')
from _psi4_conversion_functions import *


# Set memory that job can use in megabytes.
memory 8000 mb

# Initialize molecular data.
_description = 'NIST'
if _description == 'None':
    _description = None
molecule = MolecularData([('Na', (0.0911, 0.0393, 0.0)), ('O', (2.0504, -0.2213, 0.0)), ('H', (2.5245, -1.0636, 0.0))],
                         'sto-3g',
                         1,
                         0,
                         _description,
                          filename='molecule_data/SodiumHydroxide_sto-3g_singlet_NIST')

# Set molecular geometry and symmetry.
molecule mol {
Na 0.0911 0.0393 0.0
O 2.0504 -0.2213 0.0
H 2.5245 -1.0636 0.0
symmetry c1
}
mol.set_multiplicity(1)
mol.set_molecular_charge(0)

# Set reference and guess.
if molecule.multiplicity == 1:
    set reference rhf
    set guess sad
else:
    set reference rohf
    set guess gwh

# Set global parameters of calculation.
set globals {
    basis sto-3g
    freeze_core false
    fail_on_maxiter True
    df_scf_guess false
    opdm true
    tpdm true
    soscf false
    scf_type pk
    maxiter 1e6
    num_amps_print 1e6
    r_convergence 1e-6
    d_convergence 1e-6
    e_convergence 1e-6
    ints_tolerance EQUALITY_TOLERANCE
    damping_percentage 0
}

# Run self-consistent field (SCF) calculation.
if True:
    try:
        hf_energy, hf_wavefunction = energy('scf', return_wfn=True)
        if False:
            print('Hartree-Fock energy for {} ({} electrons) is {}.'.format(
                molecule.name, molecule.n_electrons, hf_energy))
    except:
        if False:
            print('WARNING: SCF calculation failed.')
        else:
            raise
    finally:
        # Get orbitals and Fock matrix.
        molecule.hf_energy = hf_energy
        molecule.nuclear_repulsion = mol.nuclear_repulsion_energy()
        molecule.canonical_orbitals = numpy.asarray(hf_wavefunction.Ca())
        molecule.overlap_integrals = numpy.asarray(hf_wavefunction.S())
        molecule.n_orbitals = molecule.canonical_orbitals.shape[0]
        molecule.n_qubits = 2 * molecule.n_orbitals
        molecule.orbital_energies = numpy.asarray(hf_wavefunction.epsilon_a())
        molecule.fock_matrix = numpy.asarray(hf_wavefunction.Fa())

        # Get integrals using MintsHelper.
        mints = MintsHelper(hf_wavefunction.basisset())
        molecule.one_body_integrals = general_basis_change(
            numpy.asarray(mints.ao_kinetic()), molecule.canonical_orbitals, (1, 0))
        molecule.one_body_integrals += general_basis_change(
            numpy.asarray(mints.ao_potential()), molecule.canonical_orbitals, (1, 0))
        two_body_integrals = numpy.asarray(mints.ao_eri())
        two_body_integrals.reshape((molecule.n_orbitals, molecule.n_orbitals,
                                    molecule.n_orbitals, molecule.n_orbitals))
        two_body_integrals = numpy.einsum('psqr', two_body_integrals)
        two_body_integrals = general_basis_change(
            two_body_integrals, molecule.canonical_orbitals, (1, 1, 0, 0))
        molecule.two_body_integrals = two_body_integrals
        molecule.save()


# Perform MP2 energy calculation if there are at least two electrons.
if True:
    try:
        assert molecule.n_electrons > 1
        mp2_energy = energy('mp2')
        if False:
            print('MP2 energy for {} ({} electrons) is {}.'.format(
                molecule.name, molecule.n_electrons, mp2_energy))
    except:
        if False:
            print('WARNING: MP2 calculation failed.')
        else:
            raise
    else:
        molecule.mp2_energy = mp2_energy
        molecule.save()


# Perform configuration interaction singles and doubles (CISD) calculation.
if True:
    set qc_module detci
    try:
        cisd_energy, cisd_wavefunction = energy('cisd', return_wfn=True)
        if False:
            print('CISD energy for {} ({} electrons) is {}.'.format(
                molecule.name, molecule.n_electrons, cisd_energy))
    except:
        if False:
            print('WARNING: CISD calculation failed.')
        else:
            raise
    else:
        # For the functions below, "a" and "b" refer to "up and "down" spins.
        molecule.cisd_energy = cisd_energy

        # Get 1-RDM from CISD calculation.
        cisd_one_rdm_a = numpy.array(cisd_wavefunction.get_opdm(
            0, 0, 'A', True)).reshape(molecule.n_orbitals, molecule.n_orbitals)
        cisd_one_rdm_b = numpy.array(cisd_wavefunction.get_opdm(
            0, 0, 'B', True)).reshape(molecule.n_orbitals, molecule.n_orbitals)

        # Get 2-RDM from CISD calculation.
        cisd_two_rdm_aa = numpy.array(cisd_wavefunction.get_tpdm(
            'AA', False)).reshape(molecule.n_orbitals, molecule.n_orbitals,
                                  molecule.n_orbitals, molecule.n_orbitals)
        cisd_two_rdm_ab = numpy.array(cisd_wavefunction.get_tpdm(
            'AB', False)).reshape(molecule.n_orbitals, molecule.n_orbitals,
                                  molecule.n_orbitals, molecule.n_orbitals)
        cisd_two_rdm_bb = numpy.array(cisd_wavefunction.get_tpdm(
            'BB', False)).reshape(molecule.n_orbitals, molecule.n_orbitals,
                                  molecule.n_orbitals, molecule.n_orbitals)

        # Get overall RDMs.
        cisd_one_rdm, cisd_two_rdm = unpack_spatial_rdm(
            cisd_one_rdm_a, cisd_one_rdm_b, cisd_two_rdm_aa,
            cisd_two_rdm_ab, cisd_two_rdm_bb)

        # Store 1-RDM in molecule file, 2-RDM separately in other file.
        molecule.cisd_one_rdm = cisd_one_rdm
        molecule.cisd_two_rdm = cisd_two_rdm
        molecule.save()


# Perform exact diagonalization.
if True:
    set qc_module detci
    try:
        fci_energy, fci_wavefunction = energy('fci', return_wfn=True)
        if False:
            print('FCI energy for {} ({} electrons) is {}.'.format(
                molecule.name, molecule.n_electrons, fci_energy))
    except:
        if False:
            print('WARNING: FCI calculation failed.')
        else:
            raise
    finally:
        # For the functions below, "a" and "b" refer to "up and "down" spins.
        molecule.fci_energy = fci_energy

        # Get 1-RDM from FCI calculation.
        fci_one_rdm_a = numpy.array(fci_wavefunction.get_opdm(
            0, 0, 'A', True)).reshape(molecule.n_orbitals, molecule.n_orbitals)
        fci_one_rdm_b = numpy.array(fci_wavefunction.get_opdm(
            0, 0, 'B', True)).reshape(molecule.n_orbitals, molecule.n_orbitals)

        # Get 2-RDM from FCI calculation.
        fci_two_rdm_aa = numpy.array(fci_wavefunction.get_tpdm(
            'AA', False)).reshape(molecule.n_orbitals, molecule.n_orbitals,
                                  molecule.n_orbitals, molecule.n_orbitals)
        fci_two_rdm_ab = numpy.array(fci_wavefunction.get_tpdm(
            'AB', False)).reshape(molecule.n_orbitals, molecule.n_orbitals,
                                  molecule.n_orbitals, molecule.n_orbitals)
        fci_two_rdm_bb = numpy.array(fci_wavefunction.get_tpdm(
            'BB', False)).reshape(molecule.n_orbitals, molecule.n_orbitals,
                                  molecule.n_orbitals, molecule.n_orbitals)

        # Get overall RDMs.
        fci_one_rdm, fci_two_rdm = unpack_spatial_rdm(
            fci_one_rdm_a, fci_one_rdm_b,
            fci_two_rdm_aa, fci_two_rdm_ab, fci_two_rdm_bb)

        # Store 1-RDM in molecule file, 2-RDM separately in other file.
        molecule.fci_one_rdm = fci_one_rdm
        molecule.fci_two_rdm = fci_two_rdm
        molecule.save()


# Perform coupled cluster singles and doubles (CCSD) calculation.
if True:
    set qc_module ccenergy
    try:
        ccsd_energy = energy('ccsd')
        if False:
            print('CCSD energy for {} ({} electrons) is {}.'.format(
                molecule.name, molecule.n_electrons, ccsd_energy))
    except:
        if False:
            print('WARNING: CCSD calculation failed.')
        else:
            raise
    else:
        molecule.ccsd_energy = ccsd_energy

        # Merge CC amplitudes into molecule by parsing
        psi_filename = outfile_name()
        single_cc_amplitudes, double_cc_amplitudes = (
            parse_psi4_ccsd_amplitudes(
                2 * molecule.n_orbitals,
                molecule.get_n_alpha_electrons(),
                molecule.get_n_beta_electrons(),
                psi_filename))

        molecule.ccsd_single_amps = single_cc_amplitudes
        molecule.ccsd_double_amps = double_cc_amplitudes
        molecule.save()
--------------------------------------------------------------------------

  Memory set to   7.451 GiB by Python driver.

*** tstart() called on trurls-machine
*** at Thu Mar  5 10:51:27 2020

   => Loading Basis Set <=

    Name: STO-3G
    Role: ORBITAL
    Keyword: BASIS
    atoms 1 entry NA         line   111 file /Users/teague/anaconda3/envs/gen_env/share/psi4/basis/sto-3g.gbs 
    atoms 2 entry O          line    81 file /Users/teague/anaconda3/envs/gen_env/share/psi4/basis/sto-3g.gbs 
    atoms 3 entry H          line    19 file /Users/teague/anaconda3/envs/gen_env/share/psi4/basis/sto-3g.gbs 


         ---------------------------------------------------------
                                   SCF
               by Justin Turney, Rob Parrish, Andy Simmonett
                          and Daniel G. A. Smith
                              RHF Reference
                        1 Threads,   7629 MiB Core
         ---------------------------------------------------------

  ==> Geometry <==

    Molecular point group: c1
    Full point group: Cs

    Geometry (in Angstrom), charge = 0, multiplicity = 1:

       Center              X                  Y                   Z               Mass       
    ------------   -----------------  -----------------  -----------------  -----------------
         NA          -0.844940178759     0.132019848683     0.000000000000    22.989769282000
         O            1.114359821241    -0.128580151317     0.000000000000    15.994914619570
         H            1.588459821241    -0.970880151317     0.000000000000     1.007825032230

  Running in c1 symmetry.

  Rotational constants: A =     31.13243  B =      0.42258  C =      0.41692 [cm^-1]
  Rotational constants: A = 933326.80917  B =  12668.68595  C =  12499.02805 [MHz]
  Nuclear repulsion =   30.118625683457708

  Charge       = 0
  Multiplicity = 1
  Electrons    = 20
  Nalpha       = 10
  Nbeta        = 10

  ==> Algorithm <==

  SCF Algorithm Type is PK.
  DIIS enabled.
  MOM disabled.
  Fractional occupation disabled.
  Guess Type is SAD.
  Energy threshold   = 1.00e-06
  Density threshold  = 1.00e-06
  Integral threshold = 0.00e+00

  ==> Primary Basis <==

  Basis Set: STO-3G
    Blend: STO-3G
    Number of shells: 9
    Number of basis function: 15
    Number of Cartesian functions: 15
    Spherical Harmonics?: true
    Max angular momentum: 1

  ==> Pre-Iterations <==

   -------------------------------------------------------
    Irrep   Nso     Nmo     Nalpha   Nbeta   Ndocc  Nsocc
   -------------------------------------------------------
     A         15      15       0       0       0       0
   -------------------------------------------------------
    Total      15      15      10      10      10       0
   -------------------------------------------------------

  ==> Integral Setup <==

  Using in-core PK algorithm.
   Calculation information:
      Number of atoms:                   3
      Number of AO shells:               9
      Number of primitives:             27
      Number of atomic orbitals:        15
      Number of basis functions:        15

      Integral cutoff                 1.00e-12
      Number of threads:                 1

  Performing in-core PK
  Using 14520 doubles for integral storage.
  We computed 990 shell quartets total.
  Whereas there are 1035 unique shell quartets.

  ==> DiskJK: Disk-Based J/K Matrices <==

    J tasked:                  Yes
    K tasked:                  Yes
    wK tasked:                  No
    Memory [MiB]:             5722
    Schwarz Cutoff:          1E-12

    OpenMP threads:              1

  Minimum eigenvalue in the overlap matrix is 3.7385842923E-01.
  Using Symmetric Orthogonalization.

  SCF Guess: Superposition of Atomic Densities via on-the-fly atomic UHF.

  ==> Iterations <==

                        Total Energy        Delta E     RMS |[F,P]|

   @RHF iter SAD:  -232.81205953323382   -2.32812e+02   0.00000e+00 
   @RHF iter   1:  -234.07052189478711   -1.25846e+00   2.60314e-02 DIIS
   @RHF iter   2:  -234.19433780433258   -1.23816e-01   4.88493e-03 DIIS
   @RHF iter   3:  -234.19737149209473   -3.03369e-03   8.69557e-04 DIIS
   @RHF iter   4:  -234.19751813995126   -1.46648e-04   1.85681e-04 DIIS
   @RHF iter   5:  -234.19752790409700   -9.76415e-06   2.72715e-05 DIIS
   @RHF iter   6:  -234.19752823997567   -3.35879e-07   5.71569e-06 DIIS
   @RHF iter   7:  -234.19752825740255   -1.74269e-08   1.27769e-06 DIIS
   @RHF iter   8:  -234.19752825793969   -5.37142e-10   2.74347e-07 DIIS
  Energy and wave function converged.


  ==> Post-Iterations <==

    Orbital Energies [Eh]
    ---------------------

    Doubly Occupied:                                                      

       1A    -40.210470     2A    -19.812246     3A     -2.770016  
       4A     -1.423768     5A     -1.423716     6A     -1.421595  
       7A     -0.930846     8A     -0.269094     9A     -0.098251  
      10A     -0.095013  

    Virtual:                                                              

      11A      0.432752    12A      0.718959    13A      0.725791  
      14A      0.847331    15A      1.023937  

    Final Occupation by Irrep:
              A 
    DOCC [    10 ]

  @RHF Final Energy:  -234.19752825793969

   => Energetics <=

    Nuclear Repulsion Energy =             30.1186256834577080
    One-Electron Energy =                -391.7222892441885165
    Two-Electron Energy =                 127.4061353027910997
    Total Energy =                       -234.1975282579397231

Computation Completed


Properties will be evaluated at   0.000000,   0.000000,   0.000000 [a0]

Properties computed using the SCF density matrix

  Nuclear Dipole Moment: [e a0]
     X:     2.2847      Y:    -1.0343      Z:     0.0000

  Electronic Dipole Moment: [e a0]
     X:    -5.1498      Y:     1.2609      Z:     0.0000

  Dipole Moment: [e a0]
     X:    -2.8651      Y:     0.2266      Z:     0.0000     Total:     2.8741

  Dipole Moment: [D]
     X:    -7.2824      Y:     0.5761      Z:     0.0000     Total:     7.3052


*** tstop() called on trurls-machine at Thu Mar  5 10:51:27 2020
Module time:
	user time   =       0.20 seconds =       0.00 minutes
	system time =       0.01 seconds =       0.00 minutes
	total time  =          0 seconds =       0.00 minutes
Total time:
	user time   =       0.20 seconds =       0.00 minutes
	system time =       0.01 seconds =       0.00 minutes
	total time  =          0 seconds =       0.00 minutes

*** tstart() called on trurls-machine
*** at Thu Mar  5 10:51:27 2020

   => Loading Basis Set <=

    Name: STO-3G
    Role: ORBITAL
    Keyword: BASIS
    atoms 1 entry NA         line   111 file /Users/teague/anaconda3/envs/gen_env/share/psi4/basis/sto-3g.gbs 
    atoms 2 entry O          line    81 file /Users/teague/anaconda3/envs/gen_env/share/psi4/basis/sto-3g.gbs 
    atoms 3 entry H          line    19 file /Users/teague/anaconda3/envs/gen_env/share/psi4/basis/sto-3g.gbs 


         ---------------------------------------------------------
                                   SCF
               by Justin Turney, Rob Parrish, Andy Simmonett
                          and Daniel G. A. Smith
                              RHF Reference
                        1 Threads,   7629 MiB Core
         ---------------------------------------------------------

  ==> Geometry <==

    Molecular point group: c1
    Full point group: Cs

    Geometry (in Angstrom), charge = 0, multiplicity = 1:

       Center              X                  Y                   Z               Mass       
    ------------   -----------------  -----------------  -----------------  -----------------
         NA          -0.844940178759     0.132019848683     0.000000000000    22.989769282000
         O            1.114359821241    -0.128580151317     0.000000000000    15.994914619570
         H            1.588459821241    -0.970880151317     0.000000000000     1.007825032230

  Running in c1 symmetry.

  Rotational constants: A =     31.13243  B =      0.42258  C =      0.41692 [cm^-1]
  Rotational constants: A = 933326.80917  B =  12668.68595  C =  12499.02805 [MHz]
  Nuclear repulsion =   30.118625683457708

  Charge       = 0
  Multiplicity = 1
  Electrons    = 20
  Nalpha       = 10
  Nbeta        = 10

  ==> Algorithm <==

  SCF Algorithm Type is PK.
  DIIS enabled.
  MOM disabled.
  Fractional occupation disabled.
  Guess Type is SAD.
  Energy threshold   = 1.00e-06
  Density threshold  = 1.00e-06
  Integral threshold = 0.00e+00

  ==> Primary Basis <==

  Basis Set: STO-3G
    Blend: STO-3G
    Number of shells: 9
    Number of basis function: 15
    Number of Cartesian functions: 15
    Spherical Harmonics?: true
    Max angular momentum: 1

  ==> Pre-Iterations <==

   -------------------------------------------------------
    Irrep   Nso     Nmo     Nalpha   Nbeta   Ndocc  Nsocc
   -------------------------------------------------------
     A         15      15       0       0       0       0
   -------------------------------------------------------
    Total      15      15      10      10      10       0
   -------------------------------------------------------

  ==> Integral Setup <==

  Using in-core PK algorithm.
   Calculation information:
      Number of atoms:                   3
      Number of AO shells:               9
      Number of primitives:             27
      Number of atomic orbitals:        15
      Number of basis functions:        15

      Integral cutoff                 1.00e-12
      Number of threads:                 1

  Performing in-core PK
  Using 14520 doubles for integral storage.
  We computed 990 shell quartets total.
  Whereas there are 1035 unique shell quartets.

  ==> DiskJK: Disk-Based J/K Matrices <==

    J tasked:                  Yes
    K tasked:                  Yes
    wK tasked:                  No
    Memory [MiB]:             5722
    Schwarz Cutoff:          1E-12

    OpenMP threads:              1

  Minimum eigenvalue in the overlap matrix is 3.7385842923E-01.
  Using Symmetric Orthogonalization.

  SCF Guess: Superposition of Atomic Densities via on-the-fly atomic UHF.

  ==> Iterations <==

                        Total Energy        Delta E     RMS |[F,P]|

   @RHF iter SAD:  -232.81205953323382   -2.32812e+02   0.00000e+00 
   @RHF iter   1:  -234.07052189478711   -1.25846e+00   2.60314e-02 DIIS
   @RHF iter   2:  -234.19433780433258   -1.23816e-01   4.88493e-03 DIIS
   @RHF iter   3:  -234.19737149209473   -3.03369e-03   8.69557e-04 DIIS
   @RHF iter   4:  -234.19751813995126   -1.46648e-04   1.85681e-04 DIIS
   @RHF iter   5:  -234.19752790409700   -9.76415e-06   2.72715e-05 DIIS
   @RHF iter   6:  -234.19752823997567   -3.35879e-07   5.71569e-06 DIIS
   @RHF iter   7:  -234.19752825740255   -1.74269e-08   1.27769e-06 DIIS
   @RHF iter   8:  -234.19752825793969   -5.37142e-10   2.74347e-07 DIIS
  Energy and wave function converged.


  ==> Post-Iterations <==

    Orbital Energies [Eh]
    ---------------------

    Doubly Occupied:                                                      

       1A    -40.210470     2A    -19.812246     3A     -2.770016  
       4A     -1.423768     5A     -1.423716     6A     -1.421595  
       7A     -0.930846     8A     -0.269094     9A     -0.098251  
      10A     -0.095013  

    Virtual:                                                              

      11A      0.432752    12A      0.718959    13A      0.725791  
      14A      0.847331    15A      1.023937  

    Final Occupation by Irrep:
              A 
    DOCC [    10 ]

  @RHF Final Energy:  -234.19752825793969

   => Energetics <=

    Nuclear Repulsion Energy =             30.1186256834577080
    One-Electron Energy =                -391.7222892441885165
    Two-Electron Energy =                 127.4061353027910997
    Total Energy =                       -234.1975282579397231

Computation Completed


Properties will be evaluated at   0.000000,   0.000000,   0.000000 [a0]

Properties computed using the SCF density matrix

  Nuclear Dipole Moment: [e a0]
     X:     2.2847      Y:    -1.0343      Z:     0.0000

  Electronic Dipole Moment: [e a0]
     X:    -5.1498      Y:     1.2609      Z:     0.0000

  Dipole Moment: [e a0]
     X:    -2.8651      Y:     0.2266      Z:     0.0000     Total:     2.8741

  Dipole Moment: [D]
     X:    -7.2824      Y:     0.5761      Z:     0.0000     Total:     7.3052


*** tstop() called on trurls-machine at Thu Mar  5 10:51:28 2020
Module time:
	user time   =       0.20 seconds =       0.00 minutes
	system time =       0.01 seconds =       0.00 minutes
	total time  =          1 seconds =       0.02 minutes
Total time:
	user time   =       0.46 seconds =       0.01 minutes
	system time =       0.03 seconds =       0.00 minutes
	total time  =          1 seconds =       0.02 minutes

*** tstart() called on trurls-machine
*** at Thu Mar  5 10:51:28 2020


  //>>>>>>>>>>>>>>>>>>>>>>>>>>>>>>>>>>>//
  //               DFMP2               //
  //<<<<<<<<<<<<<<<<<<<<<<<<<<<<<<<<<<<//

   => Loading Basis Set <=

    Name: (STO-3G AUX)
    Role: RIFIT
    Keyword: DF_BASIS_MP2
    atoms 1 entry NA         line   610 file /Users/teague/anaconda3/envs/gen_env/share/psi4/basis/def2-qzvpp-ri.gbs 
    atoms 2 entry O          line   406 file /Users/teague/anaconda3/envs/gen_env/share/psi4/basis/def2-qzvpp-ri.gbs 
    atoms 3 entry H          line    24 file /Users/teague/anaconda3/envs/gen_env/share/psi4/basis/def2-qzvpp-ri.gbs 

	 --------------------------------------------------------
	                          DF-MP2                         
	      2nd-Order Density-Fitted Moller-Plesset Theory     
	              RMP2 Wavefunction,   1 Threads             
	                                                         
	        Rob Parrish, Justin Turney, Andy Simmonett,      
	           Ed Hohenstein, and C. David Sherrill          
	 --------------------------------------------------------

   => Auxiliary Basis Set <=

  Basis Set: (STO-3G AUX)
    Blend: DEF2-QZVPP-RI
    Number of shells: 91
    Number of basis function: 363
    Number of Cartesian functions: 476
    Spherical Harmonics?: true
    Max angular momentum: 5

	 --------------------------------------------------------
	                 NBF =    15, NAUX =   363
	 --------------------------------------------------------
	   CLASS    FOCC     OCC    AOCC    AVIR     VIR    FVIR
	   PAIRS       0      10      10       5       5       0
	 --------------------------------------------------------

	-----------------------------------------------------------
	 ==================> DF-MP2 Energies <==================== 
	-----------------------------------------------------------
	 Reference Energy          =    -234.1975282579396946 [Eh]
	 Singles Energy            =      -0.0000000000000000 [Eh]
	 Same-Spin Energy          =      -0.0144241048097983 [Eh]
	 Opposite-Spin Energy      =      -0.0552245327386185 [Eh]
	 Correlation Energy        =      -0.0696486375484168 [Eh]
	 Total Energy              =    -234.2671768954881202 [Eh]
	-----------------------------------------------------------
	 ================> DF-SCS-MP2 Energies <================== 
	-----------------------------------------------------------
	 SCS Same-Spin Scale       =       0.3333333333333333 [-]
	 SCS Opposite-Spin Scale   =       1.2000000000000000 [-]
	 SCS Same-Spin Energy      =      -0.0048080349365994 [Eh]
	 SCS Opposite-Spin Energy  =      -0.0662694392863422 [Eh]
	 SCS Correlation Energy    =      -0.0710774742229416 [Eh]
	 SCS Total Energy          =    -234.2686057321626265 [Eh]
	-----------------------------------------------------------


*** tstop() called on trurls-machine at Thu Mar  5 10:51:28 2020
Module time:
	user time   =       0.10 seconds =       0.00 minutes
	system time =       0.00 seconds =       0.00 minutes
	total time  =          0 seconds =       0.00 minutes
Total time:
	user time   =       0.56 seconds =       0.01 minutes
	system time =       0.03 seconds =       0.00 minutes
	total time  =          1 seconds =       0.02 minutes

*** tstart() called on trurls-machine
*** at Thu Mar  5 10:51:28 2020

   => Loading Basis Set <=

    Name: STO-3G
    Role: ORBITAL
    Keyword: BASIS
    atoms 1 entry NA         line   111 file /Users/teague/anaconda3/envs/gen_env/share/psi4/basis/sto-3g.gbs 
    atoms 2 entry O          line    81 file /Users/teague/anaconda3/envs/gen_env/share/psi4/basis/sto-3g.gbs 
    atoms 3 entry H          line    19 file /Users/teague/anaconda3/envs/gen_env/share/psi4/basis/sto-3g.gbs 


         ---------------------------------------------------------
                                   SCF
               by Justin Turney, Rob Parrish, Andy Simmonett
                          and Daniel G. A. Smith
                              RHF Reference
                        1 Threads,   7629 MiB Core
         ---------------------------------------------------------

  ==> Geometry <==

    Molecular point group: c1
    Full point group: Cs

    Geometry (in Angstrom), charge = 0, multiplicity = 1:

       Center              X                  Y                   Z               Mass       
    ------------   -----------------  -----------------  -----------------  -----------------
         NA          -0.844940178759     0.132019848683     0.000000000000    22.989769282000
         O            1.114359821241    -0.128580151317     0.000000000000    15.994914619570
         H            1.588459821241    -0.970880151317     0.000000000000     1.007825032230

  Running in c1 symmetry.

  Rotational constants: A =     31.13243  B =      0.42258  C =      0.41692 [cm^-1]
  Rotational constants: A = 933326.80917  B =  12668.68595  C =  12499.02805 [MHz]
  Nuclear repulsion =   30.118625683457708

  Charge       = 0
  Multiplicity = 1
  Electrons    = 20
  Nalpha       = 10
  Nbeta        = 10

  ==> Algorithm <==

  SCF Algorithm Type is PK.
  DIIS enabled.
  MOM disabled.
  Fractional occupation disabled.
  Guess Type is SAD.
  Energy threshold   = 1.00e-06
  Density threshold  = 1.00e-06
  Integral threshold = 0.00e+00

  ==> Primary Basis <==

  Basis Set: STO-3G
    Blend: STO-3G
    Number of shells: 9
    Number of basis function: 15
    Number of Cartesian functions: 15
    Spherical Harmonics?: true
    Max angular momentum: 1

  ==> Pre-Iterations <==

   -------------------------------------------------------
    Irrep   Nso     Nmo     Nalpha   Nbeta   Ndocc  Nsocc
   -------------------------------------------------------
     A         15      15       0       0       0       0
   -------------------------------------------------------
    Total      15      15      10      10      10       0
   -------------------------------------------------------

  ==> Integral Setup <==

  Using in-core PK algorithm.
   Calculation information:
      Number of atoms:                   3
      Number of AO shells:               9
      Number of primitives:             27
      Number of atomic orbitals:        15
      Number of basis functions:        15

      Integral cutoff                 1.00e-12
      Number of threads:                 1

  Performing in-core PK
  Using 14520 doubles for integral storage.
  We computed 990 shell quartets total.
  Whereas there are 1035 unique shell quartets.

  ==> DiskJK: Disk-Based J/K Matrices <==

    J tasked:                  Yes
    K tasked:                  Yes
    wK tasked:                  No
    Memory [MiB]:             5722
    Schwarz Cutoff:          1E-12

    OpenMP threads:              1

  Minimum eigenvalue in the overlap matrix is 3.7385842923E-01.
  Using Symmetric Orthogonalization.

  SCF Guess: Superposition of Atomic Densities via on-the-fly atomic UHF.

  ==> Iterations <==

                        Total Energy        Delta E     RMS |[F,P]|

   @RHF iter SAD:  -232.81205953323382   -2.32812e+02   0.00000e+00 
   @RHF iter   1:  -234.07052189478711   -1.25846e+00   2.60314e-02 DIIS
   @RHF iter   2:  -234.19433780433258   -1.23816e-01   4.88493e-03 DIIS
   @RHF iter   3:  -234.19737149209473   -3.03369e-03   8.69557e-04 DIIS
   @RHF iter   4:  -234.19751813995126   -1.46648e-04   1.85681e-04 DIIS
   @RHF iter   5:  -234.19752790409700   -9.76415e-06   2.72715e-05 DIIS
   @RHF iter   6:  -234.19752823997567   -3.35879e-07   5.71569e-06 DIIS
   @RHF iter   7:  -234.19752825740255   -1.74269e-08   1.27769e-06 DIIS
   @RHF iter   8:  -234.19752825793969   -5.37142e-10   2.74347e-07 DIIS
  Energy and wave function converged.


  ==> Post-Iterations <==

    Orbital Energies [Eh]
    ---------------------

    Doubly Occupied:                                                      

       1A    -40.210470     2A    -19.812246     3A     -2.770016  
       4A     -1.423768     5A     -1.423716     6A     -1.421595  
       7A     -0.930846     8A     -0.269094     9A     -0.098251  
      10A     -0.095013  

    Virtual:                                                              

      11A      0.432752    12A      0.718959    13A      0.725791  
      14A      0.847331    15A      1.023937  

    Final Occupation by Irrep:
              A 
    DOCC [    10 ]

  @RHF Final Energy:  -234.19752825793969

   => Energetics <=

    Nuclear Repulsion Energy =             30.1186256834577080
    One-Electron Energy =                -391.7222892441885165
    Two-Electron Energy =                 127.4061353027910997
    Total Energy =                       -234.1975282579397231

Computation Completed


Properties will be evaluated at   0.000000,   0.000000,   0.000000 [a0]

Properties computed using the SCF density matrix

  Nuclear Dipole Moment: [e a0]
     X:     2.2847      Y:    -1.0343      Z:     0.0000

  Electronic Dipole Moment: [e a0]
     X:    -5.1498      Y:     1.2609      Z:     0.0000

  Dipole Moment: [e a0]
     X:    -2.8651      Y:     0.2266      Z:     0.0000     Total:     2.8741

  Dipole Moment: [D]
     X:    -7.2824      Y:     0.5761      Z:     0.0000     Total:     7.3052


*** tstop() called on trurls-machine at Thu Mar  5 10:51:28 2020
Module time:
	user time   =       0.20 seconds =       0.00 minutes
	system time =       0.01 seconds =       0.00 minutes
	total time  =          0 seconds =       0.00 minutes
Total time:
	user time   =       0.79 seconds =       0.01 minutes
	system time =       0.05 seconds =       0.00 minutes
	total time  =          1 seconds =       0.02 minutes
 MINTS: Wrapper to libmints.
   by Justin Turney

   Calculation information:
      Number of threads:                 1
      Number of atoms:                   3
      Number of AO shells:               9
      Number of SO shells:               9
      Number of primitives:             27
      Number of atomic orbitals:        15
      Number of basis functions:        15

      Number of irreps:                  1
      Integral cutoff                 0.00e+00
      Number of functions per irrep: [  15 ]

 OEINTS: Overlap, kinetic, potential, dipole, and quadrupole integrals
         stored in file 35.

      Computing two-electron integrals...done
      Computed 3928 non-zero two-electron integrals.
        Stored in file 33.


         ---------------------------------------------------------
                          Configuration Interaction
                            (a 'D E T C I' module)

                 C. David Sherrill, Daniel G. A. Smith, and
                              Matt L. Leininger
         ---------------------------------------------------------


   ==> Parameters <==

    EX LEVEL       =        2      H0 BLOCKSIZE  =     1000
    VAL EX LEVEL   =        0      H0 GUESS SIZE =     1000
    H0COUPLINGSIZE =        0      H0 COUPLING   =       NO
    MAXITER        =       24      NUM PRINT     =       20
    NUM ROOTS      =        1      ICORE         =        1
    PRINT LVL      =        1      FCI           =       NO
    R CONV         = 1.00e-06      MIXED         =      YES
    E CONV         = 1.00e-06      MIXED4        =      YES
    R4S            =       NO      REPL OTF      =       NO
    DIAG METHOD    =      SEM      FOLLOW ROOT   =        0
    PRECONDITIONER = DAVIDSON      UPDATE        = DAVIDSON
    S              =   0.0000      Ms0           =      YES
    GUESS VECTOR   =  H0BLOCK      OPENTYPE      =     NONE
    COLLAPSE SIZE  =        1      HD AVG        = EVANGELISTI
    MAX NUM VECS   =       25      REF SYM       =     AUTO
    IOPEN        =       NO

    EX ALLOW       =  1  1 
    STATE AVERAGE  =  0(1.00) 

   ==> CI Orbital and Space information <==

    RAS1 LVL      =        9      A RAS3 MAX    =        2
    RAS1 MIN      =       18      B RAS3 MAX    =        2
    A RAS1 LVL    =        9      RAS4 LVL      =       15
    A RAS1 MIN    =        8      A RAS4 MAX    =        0
    A RAS1 MAX    =       10      B RAS4 MAX    =        0
    B RAS1 LVL    =        9      RAS4 MAX      =        0
    B RAS1 MIN    =        8      A RAS34 MAX   =        2
    B RAS1 MAX    =       10      B RAS34 MAX   =        2
    RAS3 LVL      =       10      RAS34 MAX     =        2
    RAS3 MAX      =        2
   ------------------------------------
               Space    Total     A
   ------------------------------------
                 Nso       15    15
                 Nmo       15    15
               Ndocc       10    10
               Nsocc        0     0
   ------------------------------------
              CI Spaces
   ------------------------------------
        Dropped DOCC        0     0
                RAS1       10    10
                RAS2        0     0
                RAS3        5     5
                RAS4        0     0
      Active (total)       15    15
        Dropped UOCC        0     0
   ------------------------------------

   ==> Setting up CI strings <==

    There are 501 alpha and 501 beta strings
    The CI space requires 3501 (3.50E+03) determinants and 6 blocks

   ==> Transforming CI integrals <==

	Presorting SO-basis two-electron integrals.
	Sorting File: SO Ints (nn|nn) nbuckets = 1
	Transforming the one-electron integrals and constructing Fock matrices
	Starting first half-transformation.
	Sorting half-transformed integrals.
	First half integral transformation complete.
	Starting second half-transformation.
	Two-electron integral transformation complete.

   ==> Starting CI iterations <==

    H0 Block Eigenvalue = -234.23565145

    Simultaneous Expansion Method (Block Davidson Method)
    Using 1 initial trial vectors

     Iter   Root       Total Energy       Delta E      C RMS

   @CI  0:     0   -234.235651451290   -2.6435E+02   4.3077E-01  
   @CI  1:     0   -234.274613736061   -3.8962E-02   6.1138E-02  
   @CI  2:     0   -234.276180548803   -1.5668E-03   7.6800E-03  
   @CI  3:     0   -234.276206163659   -2.5615E-05   2.1575E-03  
   @CI  4:     0   -234.276209011374   -2.8477E-06   7.7521E-04  
   @CI  5:     0   -234.276209374534   -3.6316E-07   3.4275E-04  
   @CI  6:     0   -234.276209430217   -5.5683E-08   1.3006E-04  
   @CI  7:     0   -234.276209436955   -6.7387E-09   4.0152E-05  
   @CI  8:     0   -234.276209437623   -6.6717E-10   1.1098E-05  
   @CI  9:     0   -234.276209437665   -4.2803E-11   2.8189E-06  
   @CI 10:     0   -234.276209437668   -2.7853E-12   8.3222E-07 c

   ==> Energetics <==

    SCF energy =         -234.197528257939723
    Total CI energy =    -234.276209437668115

   ==> CISD root 0 information <==

    CISD Root 0 energy =  -234.276209437668115

   The 20 most important determinants:

    *   1    0.982584  (    0,    0)  1AX 2AX 3AX 4AX 5AX 6AX 7AX 8AX 9AX 10AX 
    *   2   -0.055884  (   43,   43)  1AX 2AX 3AX 4AX 5AX 6AX 7AX 9AX 10AX 15AX 
    *   3   -0.042463  (   33,   33)  1AX 2AX 3AX 4AX 5AX 6AX 7AX 9AX 10AX 14AX 
    *   4    0.038132  (   33,   43)  1AX 2AX 3AX 4AX 5AX 6AX 7AX 9AX 10AX 14AA 15AB 
    *   5    0.038132  (   43,   33)  1AX 2AX 3AX 4AX 5AX 6AX 7AX 9AX 10AX 14AB 15AA 
    *   6    0.038041  (    0,    1)  1AX 2AX 3AX 4AX 5AX 6AX 7AX 8AX 9AX 10AA 11AB 
    *   7    0.038041  (    1,    0)  1AX 2AX 3AX 4AX 5AX 6AX 7AX 8AX 9AX 10AB 11AA 
    *   8   -0.027096  (   27,   27)  1AX 2AX 3AX 5AX 6AX 7AX 8AX 9AX 10AX 13AX 
    *   9   -0.026431  (   31,   31)  1AX 2AX 3AX 4AX 5AX 6AX 7AX 8AX 9AX 14AX 
    *  10   -0.026243  (    1,    1)  1AX 2AX 3AX 4AX 5AX 6AX 7AX 8AX 9AX 11AX 
    *  11   -0.026167  (   16,   16)  1AX 2AX 3AX 4AX 6AX 7AX 8AX 9AX 10AX 12AX 
    *  12   -0.021470  (   34,   34)  1AX 2AX 3AX 4AX 5AX 6AX 8AX 9AX 10AX 14AX 
    *  13   -0.020999  (    1,   43)  1AX 2AX 3AX 4AX 5AX 6AX 7AX 8AA 9AX 10AB 11AA 15AB 
    *  14   -0.020999  (   43,    1)  1AX 2AX 3AX 4AX 5AX 6AX 7AX 8AB 9AX 10AA 11AB 15AA 
    *  15    0.020767  (   34,   43)  1AX 2AX 3AX 4AX 5AX 6AX 7AB 8AA 9AX 10AX 14AA 15AB 
    *  16    0.020767  (   43,   34)  1AX 2AX 3AX 4AX 5AX 6AX 7AA 8AB 9AX 10AX 14AB 15AA 
    *  17    0.020488  (   16,   27)  1AX 2AX 3AX 4AA 5AB 6AX 7AX 8AX 9AX 10AX 12AA 13AB 
    *  18    0.020488  (   27,   16)  1AX 2AX 3AX 4AB 5AA 6AX 7AX 8AX 9AX 10AX 12AB 13AA 
    *  19   -0.019807  (    1,   31)  1AX 2AX 3AX 4AX 5AX 6AX 7AX 8AX 9AX 11AA 14AB 
    *  20   -0.019807  (   31,    1)  1AX 2AX 3AX 4AX 5AX 6AX 7AX 8AX 9AX 11AB 14AA 

		 "A good bug is a dead bug" 

			 - Starship Troopers

		 "I didn't write FORTRAN.  That's the problem."

			 - Edward Valeev

*** tstart() called on trurls-machine
*** at Thu Mar  5 10:51:29 2020

   => Loading Basis Set <=

    Name: STO-3G
    Role: ORBITAL
    Keyword: BASIS
    atoms 1 entry NA         line   111 file /Users/teague/anaconda3/envs/gen_env/share/psi4/basis/sto-3g.gbs 
    atoms 2 entry O          line    81 file /Users/teague/anaconda3/envs/gen_env/share/psi4/basis/sto-3g.gbs 
    atoms 3 entry H          line    19 file /Users/teague/anaconda3/envs/gen_env/share/psi4/basis/sto-3g.gbs 


         ---------------------------------------------------------
                                   SCF
               by Justin Turney, Rob Parrish, Andy Simmonett
                          and Daniel G. A. Smith
                              RHF Reference
                        1 Threads,   7629 MiB Core
         ---------------------------------------------------------

  ==> Geometry <==

    Molecular point group: c1
    Full point group: Cs

    Geometry (in Angstrom), charge = 0, multiplicity = 1:

       Center              X                  Y                   Z               Mass       
    ------------   -----------------  -----------------  -----------------  -----------------
         NA          -0.844940178759     0.132019848683     0.000000000000    22.989769282000
         O            1.114359821241    -0.128580151317     0.000000000000    15.994914619570
         H            1.588459821241    -0.970880151317     0.000000000000     1.007825032230

  Running in c1 symmetry.

  Rotational constants: A =     31.13243  B =      0.42258  C =      0.41692 [cm^-1]
  Rotational constants: A = 933326.80917  B =  12668.68595  C =  12499.02805 [MHz]
  Nuclear repulsion =   30.118625683457708

  Charge       = 0
  Multiplicity = 1
  Electrons    = 20
  Nalpha       = 10
  Nbeta        = 10

  ==> Algorithm <==

  SCF Algorithm Type is PK.
  DIIS enabled.
  MOM disabled.
  Fractional occupation disabled.
  Guess Type is SAD.
  Energy threshold   = 1.00e-06
  Density threshold  = 1.00e-06
  Integral threshold = 0.00e+00

  ==> Primary Basis <==

  Basis Set: STO-3G
    Blend: STO-3G
    Number of shells: 9
    Number of basis function: 15
    Number of Cartesian functions: 15
    Spherical Harmonics?: true
    Max angular momentum: 1

  ==> Pre-Iterations <==

   -------------------------------------------------------
    Irrep   Nso     Nmo     Nalpha   Nbeta   Ndocc  Nsocc
   -------------------------------------------------------
     A         15      15       0       0       0       0
   -------------------------------------------------------
    Total      15      15      10      10      10       0
   -------------------------------------------------------

  ==> Integral Setup <==

  Using in-core PK algorithm.
   Calculation information:
      Number of atoms:                   3
      Number of AO shells:               9
      Number of primitives:             27
      Number of atomic orbitals:        15
      Number of basis functions:        15

      Integral cutoff                 1.00e-12
      Number of threads:                 1

  Performing in-core PK
  Using 14520 doubles for integral storage.
  We computed 990 shell quartets total.
  Whereas there are 1035 unique shell quartets.

  ==> DiskJK: Disk-Based J/K Matrices <==

    J tasked:                  Yes
    K tasked:                  Yes
    wK tasked:                  No
    Memory [MiB]:             5722
    Schwarz Cutoff:          1E-12

    OpenMP threads:              1

  Minimum eigenvalue in the overlap matrix is 3.7385842923E-01.
  Using Symmetric Orthogonalization.

  SCF Guess: Superposition of Atomic Densities via on-the-fly atomic UHF.

  ==> Iterations <==

                        Total Energy        Delta E     RMS |[F,P]|

   @RHF iter SAD:  -232.81205953323382   -2.32812e+02   0.00000e+00 
   @RHF iter   1:  -234.07052189478711   -1.25846e+00   2.60314e-02 DIIS
   @RHF iter   2:  -234.19433780433258   -1.23816e-01   4.88493e-03 DIIS
   @RHF iter   3:  -234.19737149209473   -3.03369e-03   8.69557e-04 DIIS
   @RHF iter   4:  -234.19751813995126   -1.46648e-04   1.85681e-04 DIIS
   @RHF iter   5:  -234.19752790409700   -9.76415e-06   2.72715e-05 DIIS
   @RHF iter   6:  -234.19752823997567   -3.35879e-07   5.71569e-06 DIIS
   @RHF iter   7:  -234.19752825740255   -1.74269e-08   1.27769e-06 DIIS
   @RHF iter   8:  -234.19752825793969   -5.37142e-10   2.74347e-07 DIIS
  Energy and wave function converged.


  ==> Post-Iterations <==

    Orbital Energies [Eh]
    ---------------------

    Doubly Occupied:                                                      

       1A    -40.210470     2A    -19.812246     3A     -2.770016  
       4A     -1.423768     5A     -1.423716     6A     -1.421595  
       7A     -0.930846     8A     -0.269094     9A     -0.098251  
      10A     -0.095013  

    Virtual:                                                              

      11A      0.432752    12A      0.718959    13A      0.725791  
      14A      0.847331    15A      1.023937  

    Final Occupation by Irrep:
              A 
    DOCC [    10 ]

  @RHF Final Energy:  -234.19752825793969

   => Energetics <=

    Nuclear Repulsion Energy =             30.1186256834577080
    One-Electron Energy =                -391.7222892441885165
    Two-Electron Energy =                 127.4061353027910997
    Total Energy =                       -234.1975282579397231

Computation Completed


Properties will be evaluated at   0.000000,   0.000000,   0.000000 [a0]

Properties computed using the SCF density matrix

  Nuclear Dipole Moment: [e a0]
     X:     2.2847      Y:    -1.0343      Z:     0.0000

  Electronic Dipole Moment: [e a0]
     X:    -5.1498      Y:     1.2609      Z:     0.0000

  Dipole Moment: [e a0]
     X:    -2.8651      Y:     0.2266      Z:     0.0000     Total:     2.8741

  Dipole Moment: [D]
     X:    -7.2824      Y:     0.5761      Z:     0.0000     Total:     7.3052


*** tstop() called on trurls-machine at Thu Mar  5 10:51:29 2020
Module time:
	user time   =       0.21 seconds =       0.00 minutes
	system time =       0.01 seconds =       0.00 minutes
	total time  =          0 seconds =       0.00 minutes
Total time:
	user time   =       1.70 seconds =       0.03 minutes
	system time =       0.10 seconds =       0.00 minutes
	total time  =          2 seconds =       0.03 minutes
 MINTS: Wrapper to libmints.
   by Justin Turney

   Calculation information:
      Number of threads:                 1
      Number of atoms:                   3
      Number of AO shells:               9
      Number of SO shells:               9
      Number of primitives:             27
      Number of atomic orbitals:        15
      Number of basis functions:        15

      Number of irreps:                  1
      Integral cutoff                 0.00e+00
      Number of functions per irrep: [  15 ]

 OEINTS: Overlap, kinetic, potential, dipole, and quadrupole integrals
         stored in file 35.

      Computing two-electron integrals...done
      Computed 3928 non-zero two-electron integrals.
        Stored in file 33.


         ---------------------------------------------------------
                          Configuration Interaction
                            (a 'D E T C I' module)

                 C. David Sherrill, Daniel G. A. Smith, and
                              Matt L. Leininger
         ---------------------------------------------------------


   ==> Parameters <==

    EX LEVEL       =       20      H0 BLOCKSIZE  =     1000
    VAL EX LEVEL   =        0      H0 GUESS SIZE =     1000
    H0COUPLINGSIZE =        0      H0 COUPLING   =       NO
    MAXITER        =       24      NUM PRINT     =       20
    NUM ROOTS      =        1      ICORE         =        1
    PRINT LVL      =        1      FCI           =      YES
    R CONV         = 1.00e-06      MIXED         =      YES
    E CONV         = 1.00e-06      MIXED4        =      YES
    R4S            =       NO      REPL OTF      =       NO
    DIAG METHOD    =      SEM      FOLLOW ROOT   =        0
    PRECONDITIONER = DAVIDSON      UPDATE        = DAVIDSON
    S              =   0.0000      Ms0           =      YES
    GUESS VECTOR   =  H0BLOCK      OPENTYPE      =     NONE
    COLLAPSE SIZE  =        1      HD AVG        = EVANGELISTI
    MAX NUM VECS   =       25      REF SYM       =     AUTO
    IOPEN        =       NO

    EX ALLOW       =  1  1  1  1  1  1  1  1  1  1  1  1  1  1  1  1  1  1  1  1 
    STATE AVERAGE  =  0(1.00) 

   ==> CI Orbital and Space information <==

   ------------------------------------
               Space    Total     A
   ------------------------------------
                 Nso       15    15
                 Nmo       15    15
               Ndocc       10    10
               Nsocc        0     0
   ------------------------------------
              CI Spaces
   ------------------------------------
        Dropped DOCC        0     0
              Active       15    15
        Dropped UOCC        0     0
   ------------------------------------

   ==> Setting up CI strings <==

    There are 3003 alpha and 3003 beta strings
    The CI space requires 9018009 (9.02E+06) determinants and 1 blocks

   ==> Transforming CI integrals <==

	Presorting SO-basis two-electron integrals.
	Sorting File: SO Ints (nn|nn) nbuckets = 1
	Transforming the one-electron integrals and constructing Fock matrices
	Starting first half-transformation.
	Sorting half-transformed integrals.
	First half integral transformation complete.
	Starting second half-transformation.
	Two-electron integral transformation complete.

   ==> Starting CI iterations <==

    H0 Block Eigenvalue = -234.22846454

    Simultaneous Expansion Method (Block Davidson Method)
    Using 1 initial trial vectors

     Iter   Root       Total Energy       Delta E      C RMS

   @CI  0:     0   -234.228464536783   -2.6435E+02   4.5926E-01  
   @CI  1:     0   -234.276491239931   -4.8027E-02   1.5906E-01  
   @CI  2:     0   -234.280503860015   -4.0126E-03   4.5912E-02  
   @CI  3:     0   -234.280789484866   -2.8562E-04   1.7161E-02  
   @CI  4:     0   -234.280831955196   -4.2470E-05   6.8657E-03  
   @CI  5:     0   -234.280838347209   -6.3920E-06   3.4746E-03  
   @CI  6:     0   -234.280840120786   -1.7736E-06   1.8616E-03  
   @CI  7:     0   -234.280840589470   -4.6868E-07   1.0635E-03  

Traceback (most recent call last):
  File "/Users/teague/anaconda3/envs/gen_env/bin/psi4", line 287, in <module>
    exec(content)
  File "<string>", line 170, in <module>

NameError: name 'fci_energy' is not defined


Printing out the relevant lines from the Psithon --> Python processed input file:
                print('WARNING: FCI calculation failed.')
            else:
                raise
        finally:
           
-->         molecule.fci_energy = fci_energy
           
            fci_one_rdm_a = numpy.array(fci_wavefunction.get_opdm(
                0, 0, 'A', True)).reshape(molecule.n_orbitals, molecule.n_orbitals)
            fci_one_rdm_b = numpy.array(fci_wavefunction.get_opdm(
                0, 0, 'B', True)).reshape(molecule.n_orbitals, molecule.n_orbitals)

    Psi4 stopped on: Thursday, 05 March 2020 10:53AM
    Psi4 wall time for execution: 0:01:48.91

*** Psi4 encountered an error. Buy a developer more coffee!
*** Resources and help at github.com/psi4/psi4.
